nqpoint: 234    
npath: 6      
segment_nqpoint:
- 51
- 21
- 51
- 45
- 21
- 45
labels:
- [ 'A', 'H_2' ]
- [ 'H_2', 'K_2' ]
- [ 'K_2', 'GAMMA' ]
- [ 'GAMMA', 'M_2' ]
- [ 'M_2', 'L_2' ]
- [ 'L_2', 'A' ]
reciprocal_lattice:
- [   0.36108634,   0.19058983,  -0.01956505 ] # a*
- [  -0.01548754,   0.40800485,   0.01956505 ] # b*
- [   0.01548754,  -0.00894173,   0.19872852 ] # c*
natom: 2      
lattice:
- [     2.699024300000000,     0.112297090000000,    -0.205290630000000 ] # a
- [    -1.252260020000000,     2.393572150000000,     0.205290630000000 ] # b
- [     0.389008520000000,    -0.224594170000000,     4.991568129999999 ] # c
points:
- symbol: Ti # 1
  coordinates: [  0.692230559999994,  0.307769440000002,  0.250000000000001 ]
  mass: 47.867000
- symbol: Ti # 2
  coordinates: [  0.307769440000006,  0.692230559999998,  0.749999999999999 ]
  mass: 47.867000
supercell_matrix:
- [    0,   16,    0 ]
- [  -16,   16,    0 ]
- [    0,    0,    9 ]

phonon:
- q-position: [    0.0000000,   -0.0000000,    0.5000000 ]
  distance:    0.0000000
  band:
  - # 1
    frequency:    2.1098700636
    eigenvector:
    - # atom 1
      - [  0.61227005163012, -0.00000000000000 ]
      - [ -0.35349427863594, -0.00000000000001 ]
      - [ -0.04204268826399, -0.00002120529699 ]
    - # atom 2
      - [ -0.00059810705708, -0.61032019105156 ]
      - [  0.00034531726994,  0.35236852610754 ]
      - [  0.00006220792501,  0.04177075675713 ]
  - # 2
    frequency:    2.1098700636
    eigenvector:
    - # atom 1
      - [ -0.60697337871678,  0.00000000000000 ]
      - [  0.35043624312306, -0.00000000000001 ]
      - [  0.08471922650590, -0.00002139034220 ]
    - # atom 2
      - [ -0.00060332635921, -0.60893336355799 ]
      - [  0.00034833063543,  0.35156784089718 ]
      - [  0.00006275077424,  0.08485359129632 ]
  - # 3
    frequency:    2.2343816670
    eigenvector:
    - # atom 1
      - [ -0.04323873235625,  0.00000000000000 ]
      - [ -0.07489168140309,  0.00000000000184 ]
      - [  0.00000000002357,  0.00000000000003 ]
    - # atom 2
      - [  0.45044728226693,  0.21266795101780 ]
      - [  0.78019758012529,  0.36835169682752 ]
      - [ -0.00000000024566, -0.00000000011598 ]
  - # 4
    frequency:    2.2343816670
    eigenvector:
    - # atom 1
      - [  0.49812690299946,  0.00000000000000 ]
      - [  0.86278110583682,  0.00000000000016 ]
      - [ -0.00000000027166,  0.00000000000000 ]
    - # atom 2
      - [  0.03910001519946,  0.01846014049899 ]
      - [  0.06772321299833,  0.03197390130246 ]
      - [ -0.00000000002132, -0.00000000001010 ]
  - # 5
    frequency:    4.3550848227
    eigenvector:
    - # atom 1
      - [ -0.07343521982659,  0.00000000000000 ]
      - [  0.04239784365368,  0.00000000000026 ]
      - [ -0.70216162720158,  0.00081776874923 ]
    - # atom 2
      - [  0.00016539222123, -0.07341889500766 ]
      - [ -0.00009548924256,  0.04238841851519 ]
      - [  0.00239900894345, -0.70184411944347 ]
  - # 6
    frequency:    4.3550848227
    eigenvector:
    - # atom 1
      - [  0.03627630669450,  0.00000000000000 ]
      - [ -0.02094413518332,  0.00000000000052 ]
      - [  0.70570581986765,  0.00165543389994 ]
    - # atom 2
      - [  0.00033480845297, -0.03630741443480 ]
      - [ -0.00019330174865,  0.02096209524543 ]
      - [  0.00485638603211, -0.70600322689771 ]

- q-position: [   -0.0066667,    0.0133333,    0.5000000 ]
  distance:    0.0049365
  band:
  - # 1
    frequency:    2.1250585242
    eigenvector:
    - # atom 1
      - [  0.62198410348866, -0.00000000000000 ]
      - [ -0.32927387037964,  0.05036647529669 ]
      - [ -0.03897046389394, -0.02638015570932 ]
    - # atom 2
      - [  0.00038346443282, -0.62193810718846 ]
      - [ -0.05056574712968,  0.32921850843336 ]
      - [  0.02635840753061,  0.03898023658077 ]
  - # 2
    frequency:    2.1250585242
    eigenvector:
    - # atom 1
      - [ -0.61819386142943,  0.00000000000000 ]
      - [  0.32672772135637, -0.05014774812398 ]
      - [  0.08699301127035, -0.03107839963561 ]
    - # atom 2
      - [ -0.00847755634310, -0.61818189080717 ]
      - [ -0.04566621349011,  0.32740913237239 ]
      - [ -0.02988057095526,  0.08741388672914 ]
  - # 3
    frequency:    2.2418599185
    eigenvector:
    - # atom 1
      - [  0.32104616553961, -0.00000000000000 ]
      - [  0.59146817018951, -0.08704228995007 ]
      - [  0.00068684955077, -0.02359596041485 ]
    - # atom 2
      - [  0.09528824272607,  0.33383519815538 ]
      - [  0.08446496278056,  0.64093357945846 ]
      - [ -0.02135885916517,  0.00699922038293 ]
  - # 4
    frequency:    2.2418599185
    eigenvector:
    - # atom 1
      - [ -0.34731110985964,  0.00000000000000 ]
      - [ -0.63862451525098,  0.10149953918704 ]
      - [ -0.00266539952458, -0.01362433755197 ]
    - # atom 2
      - [  0.09357520773430,  0.30726786230883 ]
      - [  0.08173319082630,  0.59240517116600 ]
      - [  0.01552000450007, -0.00197675189939 ]
  - # 5
    frequency:    4.3593543701
    eigenvector:
    - # atom 1
      - [ -0.07492979178082,  0.00000000000000 ]
      - [  0.04649834628998, -0.02194187133576 ]
      - [ -0.68043749518322, -0.16755048405651 ]
    - # atom 2
      - [  0.02947092250970, -0.06893734197854 ]
      - [ -0.03843156061152,  0.03415054110142 ]
      - [  0.11389495736716, -0.69241420898521 ]
  - # 6
    frequency:    4.3593543701
    eigenvector:
    - # atom 1
      - [  0.04076767791332,  0.00000000000000 ]
      - [ -0.03487275088794, -0.01902894387606 ]
      - [  0.63497071237707, -0.30699448890959 ]
    - # atom 2
      - [ -0.03343942431599, -0.02318166878242 ]
      - [  0.03950536514434,  0.00422293750902 ]
      - [ -0.34549234774127, -0.61378115879377 ]

- q-position: [   -0.0133333,    0.0266667,    0.5000000 ]
  distance:    0.0098730
  band:
  - # 1
    frequency:    2.1666732333
    eigenvector:
    - # atom 1
      - [ -0.65365142322465,  0.00000000000000 ]
      - [  0.23563478537730, -0.12192472700943 ]
      - [  0.02897985999399,  0.04611511672057 ]
    - # atom 2
      - [  0.02035704255528,  0.65252336095982 ]
      - [  0.11437668936320, -0.23902855785242 ]
      - [ -0.04706347264393, -0.02740793186187 ]
  - # 2
    frequency:    2.1666732333
    eigenvector:
    - # atom 1
      - [ -0.64784886737292,  0.00000000000000 ]
      - [  0.23097293782824, -0.12001963506216 ]
      - [  0.09284702019518, -0.05746350650521 ]
    - # atom 2
      - [ -0.03618823393692, -0.64765546703832 ]
      - [ -0.10708276895065,  0.23761145595438 ]
      - [ -0.05213347661498,  0.09594266748536 ]
  - # 3
    frequency:    2.2667943509
    eigenvector:
    - # atom 1
      - [ -0.26493905381885,  0.00000000000000 ]
      - [ -0.57956985876721,  0.28489683917546 ]
      - [  0.00457774335775,  0.05713290957084 ]
    - # atom 2
      - [ -0.20643462690967, -0.17413076943252 ]
      - [ -0.26395776469718, -0.60301513777117 ]
      - [  0.03976233168441, -0.04044702104101 ]
  - # 4
    frequency:    2.2667943509
    eigenvector:
    - # atom 1
      - [  0.27167264056204,  0.00000000000000 ]
      - [  0.58221962297110, -0.30912158272374 ]
      - [  0.01593687755018,  0.02930686836625 ]
    - # atom 2
      - [ -0.21217227173614, -0.16138424001187 ]
      - [ -0.27070170512083, -0.58738650083350 ]
      - [ -0.03117736805086,  0.01445575591635 ]
  - # 5
    frequency:    4.3722498519
    eigenvector:
    - # atom 1
      - [  0.07947079119993,  0.00000000000000 ]
      - [ -0.05833806242276,  0.04267130608549 ]
      - [  0.62234984703439,  0.31806089962254 ]
    - # atom 2
      - [ -0.05636107615680,  0.05602594956655 ]
      - [  0.07145912454578, -0.01086482121255 ]
      - [ -0.21711819236795,  0.66430257960887 ]
  - # 6
    frequency:    4.3722498519
    eigenvector:
    - # atom 1
      - [ -0.05212801010679,  0.00000000000000 ]
      - [  0.06578212729663,  0.02650787525618 ]
      - [ -0.50871188423414,  0.48315948625929 ]
    - # atom 2
      - [  0.05199182974818, -0.00378256535789 ]
      - [ -0.06368262745977,  0.03121214109188 ]
      - [  0.54248248926563,  0.44495781867930 ]

- q-position: [   -0.0200000,    0.0400000,    0.5000000 ]
  distance:    0.0148096
  band:
  - # 1
    frequency:    2.2203882180
    eigenvector:
    - # atom 1
      - [ -0.67579225972585,  0.00000000000000 ]
      - [  0.03162816262835, -0.20117321466384 ]
      - [  0.01004625682185,  0.04801762997931 ]
    - # atom 2
      - [  0.09356259959792,  0.66849441366024 ]
      - [  0.19462393860524, -0.05914645231054 ]
      - [ -0.04900644885455, -0.00316941529435 ]
  - # 2
    frequency:    2.2203882180
    eigenvector:
    - # atom 1
      - [ -0.66825072459528,  0.00000000000000 ]
      - [  0.02507120206493, -0.19619179187856 ]
      - [  0.09654365545276, -0.06654100958388 ]
    - # atom 2
      - [ -0.11019889771624, -0.65990277392291 ]
      - [ -0.18960859807265,  0.05711905619592 ]
      - [ -0.04967130398855,  0.10618892487929 ]
  - # 3
    frequency:    2.3194548239
    eigenvector:
    - # atom 1
      - [  0.20192127023463, -0.00000000000000 ]
      - [  0.14543232567934, -0.65276470938119 ]
      - [ -0.05929026812705, -0.09915273845592 ]
    - # atom 2
      - [  0.15599218742905, -0.12727959158181 ]
      - [  0.52393574730293,  0.41255832067632 ]
      - [  0.01674496774919,  0.11446303265570 ]
  - # 4
    frequency:    2.3194548239
    eigenvector:
    - # atom 1
      - [ -0.20937560835123,  0.00000000000000 ]
      - [ -0.10649964408256,  0.66352187557782 ]
      - [ -0.04225329673419, -0.03744238247720 ]
    - # atom 2
      - [  0.14814063373689, -0.14876505103521 ]
      - [  0.54691007588825,  0.39374117686214 ]
      - [  0.00333933805635, -0.05604055281711 ]
  - # 5
    frequency:    4.3940282624
    eigenvector:
    - # atom 1
      - [ -0.08651830115983,  0.00000000000000 ]
      - [  0.07614425459824, -0.06154381647192 ]
      - [ -0.53598175300086, -0.44356298398255 ]
    - # atom 2
      - [  0.07863497317894, -0.03609501911217 ]
      - [ -0.09507514270378, -0.02418014947395 ]
      - [  0.30020528523171, -0.62583620007112 ]
  - # 6
    frequency:    4.3940282624
    eigenvector:
    - # atom 1
      - [  0.06819112545866,  0.00000000000000 ]
      - [ -0.10189771272603, -0.02418055454280 ]
      - [  0.41145348377794, -0.56035041930891 ]
    - # atom 2
      - [ -0.05996900100757,  0.03244773541397 ]
      - [  0.07786037532084, -0.06976554663453 ]
      - [ -0.63087097255852, -0.29583572371270 ]

- q-position: [   -0.0266667,    0.0533333,    0.5000000 ]
  distance:    0.0197461
  band:
  - # 1
    frequency:    2.2700042868
    eigenvector:
    - # atom 1
      - [  0.64874707926584, -0.00000000000000 ]
      - [  0.16367183497362,  0.22422431780601 ]
      - [  0.01118662135916, -0.03866545690315 ]
    - # atom 2
      - [ -0.19172208341316, -0.62037610622901 ]
      - [ -0.26278761505519, -0.09025903495272 ]
      - [  0.03361452428664, -0.02200509308581 ]
  - # 2
    frequency:    2.2700042868
    eigenvector:
    - # atom 1
      - [ -0.64096952713318,  0.00000000000000 ]
      - [ -0.17125067358811, -0.21807588457518 ]
      - [  0.09600281822427, -0.05915821474577 ]
    - # atom 2
      - [ -0.20341950793707, -0.60721605785073 ]
      - [ -0.26094015854709, -0.09303283580148 ]
      - [ -0.02563000267904,  0.10984232395490 ]
  - # 3
    frequency:    2.4101245806
    eigenvector:
    - # atom 1
      - [  0.26853204095050, -0.00000000000000 ]
      - [ -0.33225923940163, -0.53397542100504 ]
      - [ -0.10760474510000, -0.13470423560558 ]
    - # atom 2
      - [  0.03643809473231, -0.26765300329432 ]
      - [  0.48693415253441,  0.40375315362821 ]
      - [  0.11846452471615,  0.12457685103597 ]
  - # 4
    frequency:    2.4101245806
    eigenvector:
    - # atom 1
      - [ -0.28166959360800,  0.00000000000000 ]
      - [  0.37314861554654,  0.52519159147304 ]
      - [ -0.03913504143616, -0.08188510151298 ]
    - # atom 2
      - [  0.00385261985879, -0.28011874157289 ]
      - [  0.51699793495086,  0.37839622980541 ]
      - [ -0.08204059080006, -0.04094923206897 ]
  - # 5
    frequency:    4.4251049854
    eigenvector:
    - # atom 1
      - [ -0.09596107598021,  0.00000000000000 ]
      - [  0.09899262951620, -0.07829145591510 ]
      - [ -0.43075628036981, -0.53909743012527 ]
    - # atom 2
      - [  0.09547071132214, -0.01045302993230 ]
      - [ -0.10730410717547, -0.06712873341603 ]
      - [  0.36695512880011, -0.58205235117521 ]
  - # 6
    frequency:    4.4251049854
    eigenvector:
    - # atom 1
      - [  0.08734728013559,  0.00000000000000 ]
      - [ -0.13877682658647, -0.01646059823879 ]
      - [  0.35277489430938, -0.58913133899777 ]
    - # atom 2
      - [ -0.06347904653954,  0.05987122468827 ]
      - [  0.08925482913452, -0.10710830438876 ]
      - [ -0.66335009556896, -0.18500950661349 ]

- q-position: [   -0.0333333,    0.0666667,    0.5000000 ]
  distance:    0.0246826
  band:
  - # 1
    frequency:    2.3168457248
    eigenvector:
    - # atom 1
      - [  0.61692789910668, -0.00000000000000 ]
      - [  0.26006531059145,  0.21887346231277 ]
      - [  0.02977668895232, -0.03577359058391 ]
    - # atom 2
      - [ -0.25984083529586, -0.56186698903609 ]
      - [ -0.30888238189207, -0.14471332842010 ]
      - [  0.01994800926800, -0.04164178961768 ]
  - # 2
    frequency:    2.3168457248
    eigenvector:
    - # atom 1
      - [ -0.60888898607131,  0.00000000000000 ]
      - [ -0.26935580937164, -0.21245709327625 ]
      - [  0.10072657132212, -0.05578350995478 ]
    - # atom 2
      - [ -0.26736872260873, -0.54465403989136 ]
      - [ -0.30832834108784, -0.14769389838355 ]
      - [ -0.00576114181549,  0.11514725645918 ]
  - # 3
    frequency:    2.5305826730
    eigenvector:
    - # atom 1
      - [  0.33220678757815, -0.00000000000000 ]
      - [ -0.41758059767596, -0.41790764270930 ]
      - [ -0.08920979235936, -0.18515706516419 ]
    - # atom 2
      - [  0.07332321736440, -0.32273632199219 ]
      - [  0.31394388504624,  0.49783698458322 ]
      - [  0.16135027349991,  0.12808359141859 ]
  - # 4
    frequency:    2.5305826730
    eigenvector:
    - # atom 1
      - [ -0.33884885622695,  0.00000000000000 ]
      - [  0.45154204652969,  0.39809556545889 ]
      - [ -0.01051553639972, -0.14518039870928 ]
    - # atom 2
      - [  0.02426965516984, -0.33919884018011 ]
      - [  0.36627968181351,  0.48044502383340 ]
      - [ -0.14343834631589, -0.02038563624609 ]
  - # 5
    frequency:    4.4660302021
    eigenvector:
    - # atom 1
      - [  0.10744505435460,  0.00000000000000 ]
      - [ -0.12561874583869,  0.09266477117295 ]
      - [  0.31545345192630,  0.60603726223995 ]
    - # atom 2
      - [ -0.10593019044252, -0.02002069655584 ]
      - [  0.10727932651567,  0.11482192970914 ]
      - [ -0.41681991417910,  0.53595044899951 ]
  - # 6
    frequency:    4.4660302021
    eigenvector:
    - # atom 1
      - [ -0.10922377561822,  0.00000000000000 ]
      - [  0.17601116018158,  0.00569764450813 ]
      - [ -0.32172699850515,  0.59232271712958 ]
    - # atom 2
      - [  0.06635789950035, -0.08630682766556 ]
      - [ -0.10174484931398,  0.14259830637956 ]
      - [  0.67050160206079,  0.10291930501746 ]

- q-position: [   -0.0400000,    0.0800000,    0.5000000 ]
  distance:    0.0296191
  band:
  - # 1
    frequency:    2.3652991259
    eigenvector:
    - # atom 1
      - [  0.59887222261174,  0.00000000000000 ]
      - [  0.30420098520720,  0.21542176915268 ]
      - [  0.04647393103259, -0.03979453230700 ]
    - # atom 2
      - [ -0.30109280175941, -0.51580142197657 ]
      - [ -0.33846902542335, -0.15365393529705 ]
      - [  0.01092098075018, -0.06054575858630 ]
  - # 2
    frequency:    2.3652991259
    eigenvector:
    - # atom 1
      - [ -0.58498092233633,  0.00000000000000 ]
      - [ -0.31317843687781, -0.20632985747636 ]
      - [  0.11052091347814, -0.05994628150329 ]
    - # atom 2
      - [ -0.30889251018839, -0.49872643150180 ]
      - [ -0.34126368085827, -0.15800572319098 ]
      - [  0.00726425246000,  0.12535563003763 ]
  - # 3
    frequency:    2.6693171917
    eigenvector:
    - # atom 1
      - [  0.36435350998117, -0.00000000000000 ]
      - [ -0.41975599818470, -0.37164279458980 ]
      - [ -0.06569321214092, -0.22713240009408 ]
    - # atom 2
      - [  0.11839651842448, -0.34178104500486 ]
      - [  0.21244142593449,  0.51435178046863 ]
      - [  0.19458044543675,  0.13654906853440 ]
  - # 4
    frequency:    2.6693171917
    eigenvector:
    - # atom 1
      - [ -0.36602300815278,  0.00000000000000 ]
      - [  0.45118267487161,  0.34902633222041 ]
      - [  0.01151698323823, -0.19374637957988 ]
    - # atom 2
      - [  0.05707688674862, -0.36419298926839 ]
      - [  0.27714598219977,  0.50318946977880 ]
      - [ -0.19172035176061, -0.01763900943700 ]
  - # 5
    frequency:    4.5174476164
    eigenvector:
    - # atom 1
      - [  0.12106042658915,  0.00000000000000 ]
      - [ -0.15628413624714,  0.10448318600818 ]
      - [  0.19118187958664,  0.64413307415626 ]
    - # atom 2
      - [ -0.10849355358448, -0.05445067083697 ]
      - [  0.09349523295447,  0.16396742021343 ]
      - [ -0.45656455546551,  0.48962371664450 ]
  - # 6
    frequency:    4.5174476164
    eigenvector:
    - # atom 1
      - [ -0.13329453052490,  0.00000000000000 ]
      - [  0.21289917538425, -0.00602501554777 ]
      - [ -0.31379496776427,  0.58047213891380 ]
    - # atom 2
      - [  0.07121498135019, -0.11231989343438 ]
      - [ -0.11843253284321,  0.17621262378236 ]
      - [  0.66086020827646,  0.04420771496269 ]

- q-position: [   -0.0466667,    0.0933333,    0.5000000 ]
  distance:    0.0345556
  band:
  - # 1
    frequency:    2.4161721898
    eigenvector:
    - # atom 1
      - [ -0.58620128545856,  0.00000000000000 ]
      - [ -0.32413959841869, -0.21536663192875 ]
      - [ -0.06281675233022,  0.04892915039748 ]
    - # atom 2
      - [  0.32877228779638,  0.48326379117770 ]
      - [  0.35932140347592,  0.14637450082071 ]
      - [ -0.00507630190861,  0.07987826969604 ]
  - # 2
    frequency:    2.4161721898
    eigenvector:
    - # atom 1
      - [ -0.57000335687247,  0.00000000000000 ]
      - [ -0.33484524206278, -0.20419279280176 ]
      - [  0.12260683658020, -0.06947291124656 ]
    - # atom 2
      - [ -0.33647207414853, -0.46226313734824 ]
      - [ -0.36323387902464, -0.15096053066259 ]
      - [  0.01600247778361,  0.13977317982823 ]
  - # 3
    frequency:    2.8186935409
    eigenvector:
    - # atom 1
      - [ -0.37921238952102,  0.00000000000000 ]
      - [  0.39827730642766,  0.35467677548958 ]
      - [  0.03978758742014,  0.26690538976272 ]
    - # atom 2
      - [ -0.16159276045143,  0.34189619112566 ]
      - [ -0.15014545134192, -0.51015014713063 ]
      - [ -0.22499973667071, -0.15009683586002 ]
  - # 4
    frequency:    2.8186935409
    eigenvector:
    - # atom 1
      - [  0.37896014108931,  0.00000000000000 ]
      - [ -0.43290545367799, -0.33352031261210 ]
      - [ -0.03091388203063,  0.23610719845877 ]
    - # atom 2
      - [ -0.08899498569820,  0.36944213577325 ]
      - [ -0.22356743862869, -0.50028404916099 ]
      - [  0.23612243278512,  0.02482078890600 ]
  - # 5
    frequency:    4.5800282291
    eigenvector:
    - # atom 1
      - [  0.13718012636186,  0.00000000000000 ]
      - [ -0.19110343587704,  0.11310551505766 ]
      - [  0.06603672926371,  0.65255972879760 ]
    - # atom 2
      - [ -0.10185593467931, -0.09100679791054 ]
      - [  0.06630085377160,  0.21071393257011 ]
      - [ -0.48796788973255,  0.44284025137204 ]
  - # 6
    frequency:    4.5800282291
    eigenvector:
    - # atom 1
      - [ -0.15884902930619,  0.00000000000000 ]
      - [  0.24912186806616, -0.01721212651453 ]
      - [ -0.31984580588078,  0.55837341164462 ]
    - # atom 2
      - [  0.07959311163546, -0.13805603596016 ]
      - [ -0.14026595908177,  0.20784763487050 ]
      - [  0.64034668985140,  0.00363631440989 ]

- q-position: [   -0.0533333,    0.1066667,    0.5000000 ]
  distance:    0.0394921
  band:
  - # 1
    frequency:    2.4688163929
    eigenvector:
    - # atom 1
      - [  0.57661516348781,  0.00000000000000 ]
      - [  0.33230576867186,  0.21768169715128 ]
      - [  0.07895193778913, -0.06157339265896 ]
    - # atom 2
      - [ -0.34754906265544, -0.45961831999108 ]
      - [ -0.37380114598557, -0.13365885104120 ]
      - [  0.00147909100850, -0.10022122015015 ]
  - # 2
    frequency:    2.4688163929
    eigenvector:
    - # atom 1
      - [ -0.55948248257393,  0.00000000000000 ]
      - [ -0.34589889155985, -0.20437828619185 ]
      - [  0.13562150422709, -0.08274931503959 ]
    - # atom 2
      - [ -0.35503788668008, -0.43291389798527 ]
      - [ -0.37763785843886, -0.13793706857925 ]
      - [  0.02201985422339,  0.15727039789457 ]
  - # 3
    frequency:    2.9731626930
    eigenvector:
    - # atom 1
      - [ -0.38717714441179,  0.00000000000000 ]
      - [  0.36776703672408,  0.35273389628426 ]
      - [  0.01224588541646,  0.30387360431844 ]
    - # atom 2
      - [ -0.19990270196305,  0.32880693737677 ]
      - [ -0.10987528010844, -0.49425368812332 ]
      - [ -0.25510312910315, -0.16857921178330 ]
  - # 4
    frequency:    2.9731626930
    eigenvector:
    - # atom 1
      - [  0.38204545327743,  0.00000000000000 ]
      - [ -0.40378955873535, -0.33144673528066 ]
      - [ -0.04861847739546,  0.27695758530725 ]
    - # atom 2
      - [ -0.11823370361676,  0.36580126918132 ]
      - [ -0.19259376121640, -0.48900419088050 ]
      - [  0.27681900281875,  0.03785593836270 ]
  - # 5
    frequency:    4.6543730401
    eigenvector:
    - # atom 1
      - [  0.15287254346957,  0.00000000000000 ]
      - [ -0.22533199928816,  0.11746442715304 ]
      - [ -0.06255362296539,  0.64027381380272 ]
    - # atom 2
      - [ -0.08241780099918, -0.12989981856447 ]
      - [  0.02237121840749,  0.25485192619653 ]
      - [ -0.50250074515694,  0.39568982821013 ]
  - # 6
    frequency:    4.6543730401
    eigenvector:
    - # atom 1
      - [ -0.18777492073534,  0.00000000000000 ]
      - [  0.28775346328958, -0.02863266732886 ]
      - [ -0.33674091161007,  0.51567269060260 ]
    - # atom 2
      - [  0.09513042606501, -0.16097509327869 ]
      - [ -0.16975680658698,  0.23222174261118 ]
      - [  0.61905028956221, -0.02959016278387 ]

- q-position: [   -0.0600000,    0.1200000,    0.5000000 ]
  distance:    0.0444287
  band:
  - # 1
    frequency:    2.5221898586
    eigenvector:
    - # atom 1
      - [  0.56923014175876, -0.00000000000000 ]
      - [  0.33447528308674,  0.22136867091564 ]
      - [  0.09450888394003, -0.07687749250089 ]
    - # atom 2
      - [ -0.36066589440315, -0.44079189643889 ]
      - [ -0.38335094514562, -0.11876109406101 ]
      - [ -0.00033567969327, -0.12172725092720 ]
  - # 2
    frequency:    2.5221898586
    eigenvector:
    - # atom 1
      - [ -0.55057143425415,  0.00000000000000 ]
      - [ -0.35082717270330, -0.20524787735799 ]
      - [  0.14872026319905, -0.09901589310792 ]
    - # atom 2
      - [ -0.36879923998372, -0.40836453780780 ]
      - [ -0.38724188256167, -0.12274273709408 ]
      - [  0.02619354394192,  0.17680555344044 ]
  - # 3
    frequency:    3.1284044754
    eigenvector:
    - # atom 1
      - [  0.38894645080399,  0.00000000000000 ]
      - [ -0.32794901316353, -0.35526257267629 ]
      - [  0.02251001458172, -0.33889427902975 ]
    - # atom 2
      - [  0.23950192332726, -0.30578815840929 ]
      - [  0.07741043432413,  0.47654245271182 ]
      - [  0.28114436171795,  0.19133156745936 ]
  - # 4
    frequency:    3.1284044754
    eigenvector:
    - # atom 1
      - [  0.38123690618775,  0.00000000000000 ]
      - [ -0.36892375435488, -0.33818906241876 ]
      - [ -0.07105314547432,  0.31422264069211 ]
    - # atom 2
      - [ -0.14929106166103,  0.35137662136225 ]
      - [ -0.16727802419116, -0.47241042250393 ]
      - [  0.31657228095683,  0.05720594915232 ]
  - # 5
    frequency:    4.7408849424
    eigenvector:
    - # atom 1
      - [  0.17101432649039,  0.00000000000000 ]
      - [ -0.26290570601638,  0.11714880549555 ]
      - [ -0.18271163695133,  0.59674924667369 ]
    - # atom 2
      - [ -0.05014025681308, -0.16485967380203 ]
      - [ -0.03511112574747,  0.28783613361146 ]
      - [ -0.51313889230037,  0.34832589684474 ]
  - # 6
    frequency:    4.7408849424
    eigenvector:
    - # atom 1
      - [ -0.21675175062509,  0.00000000000000 ]
      - [  0.32473202437784, -0.03718911784524 ]
      - [ -0.35830401183458,  0.46499530871671 ]
    - # atom 2
      - [  0.11723959118452, -0.18107827623294 ]
      - [ -0.20613048008510,  0.25120701670909 ]
      - [  0.58902657138352, -0.05000852635895 ]

- q-position: [   -0.0666667,    0.1333333,    0.5000000 ]
  distance:    0.0493652
  band:
  - # 1
    frequency:    2.5752300487
    eigenvector:
    - # atom 1
      - [  0.56398500375345,  0.00000000000000 ]
      - [  0.33384879188582,  0.22586672009415 ]
      - [  0.10889973109447, -0.09407483101586 ]
    - # atom 2
      - [ -0.36953390008578, -0.42400407385620 ]
      - [ -0.38851415394644, -0.10290841181088 ]
      - [ -0.00070739879130, -0.14447232184035 ]
  - # 2
    frequency:    2.5752300487
    eigenvector:
    - # atom 1
      - [ -0.54130474667859,  0.00000000000000 ]
      - [ -0.35147549012157, -0.20554356214624 ]
      - [  0.16142319894834, -0.11785349021965 ]
    - # atom 2
      - [ -0.38043316699704, -0.38733159014583 ]
      - [ -0.39405852416178, -0.10695072549058 ]
      - [  0.02903619000156,  0.19733288387388 ]
  - # 3
    frequency:    3.2810903865
    eigenvector:
    - # atom 1
      - [  0.38874123713165,  0.00000000000000 ]
      - [ -0.28275166820238, -0.35989128025032 ]
      - [  0.06488377467302, -0.36793063952128 ]
    - # atom 2
      - [  0.27800684455266, -0.27132248716719 ]
      - [  0.04900228253471,  0.45469033400856 ]
      - [  0.30369099312831,  0.21806125484632 ]
  - # 4
    frequency:    3.2810903865
    eigenvector:
    - # atom 1
      - [  0.37572427504965,  0.00000000000000 ]
      - [ -0.32663210829129, -0.34740133272444 ]
      - [ -0.09987381198731,  0.34829215041335 ]
    - # atom 2
      - [ -0.18259663675657,  0.32869933205395 ]
      - [ -0.14520800211733, -0.45455095666343 ]
      - [  0.35272886389076,  0.08166075238886 ]
  - # 5
    frequency:    4.8396236437
    eigenvector:
    - # atom 1
      - [  0.19163920322339,  0.00000000000000 ]
      - [ -0.30296232799799,  0.11179522780304 ]
      - [ -0.28847829796245,  0.52458390142279 ]
    - # atom 2
      - [ -0.00478108795496, -0.19079530899207 ]
      - [ -0.10409742739964,  0.30440352942005 ]
      - [ -0.51932097811671,  0.30160288866824 ]
  - # 6
    frequency:    4.8396236437
    eigenvector:
    - # atom 1
      - [ -0.24473663854053,  0.00000000000000 ]
      - [  0.35891952784296, -0.04233202788492 ]
      - [ -0.38223576600774,  0.40492794606404 ]
    - # atom 2
      - [  0.14737962040349, -0.19615082260986 ]
      - [ -0.25034469205669,  0.26216278386109 ]
      - [  0.55139827696778, -0.06148316630002 ]

- q-position: [   -0.0733333,    0.1466667,    0.5000000 ]
  distance:    0.0543017
  band:
  - # 1
    frequency:    2.6270028006
    eigenvector:
    - # atom 1
      - [ -0.55693328903888,  0.00000000000000 ]
      - [ -0.32964945452050, -0.22925326007223 ]
      - [ -0.12316316332835,  0.11298747071525 ]
    - # atom 2
      - [  0.37662235653583,  0.41141454332783 ]
      - [  0.39229854922162,  0.08853986951929 ]
      - [ -0.00022186948273,  0.16679425276388 ]
  - # 2
    frequency:    2.6270028006
    eigenvector:
    - # atom 1
      - [  0.53468547333529,  0.00000000000000 ]
      - [  0.35128658706807,  0.20621149303783 ]
      - [ -0.17287472682470,  0.13771160232871 ]
    - # atom 2
      - [  0.38759245961499,  0.36705449620021 ]
      - [  0.39623206572173,  0.09172761913535 ]
      - [ -0.03082589153686, -0.21912298455470 ]
  - # 3
    frequency:    3.4288143718
    eigenvector:
    - # atom 1
      - [ -0.38683574825288,  0.00000000000000 ]
      - [  0.23266530020894,  0.36303639215003 ]
      - [ -0.11302933254557,  0.38952492382816 ]
    - # atom 2
      - [ -0.31227689171095,  0.22804533502560 ]
      - [ -0.02620761565545, -0.43020315932728 ]
      - [ -0.32117477854321, -0.24796748964046 ]
  - # 4
    frequency:    3.4288143718
    eigenvector:
    - # atom 1
      - [  0.36747253995247,  0.00000000000000 ]
      - [ -0.27834582681212, -0.35691575034494 ]
      - [ -0.13434347933885,  0.37679537340574 ]
    - # atom 2
      - [ -0.21501557366780,  0.29820250653239 ]
      - [ -0.12678435086777, -0.43469293421468 ]
      - [  0.38405909109078,  0.11129115157787 ]
  - # 5
    frequency:    4.9501754742
    eigenvector:
    - # atom 1
      - [  0.21242511268414,  0.00000000000000 ]
      - [ -0.34035513418734,  0.10138196112823 ]
      - [ -0.36941763791071,  0.43811357365331 ]
    - # atom 2
      - [  0.04942716813351, -0.20567266349422 ]
      - [ -0.17767919182189,  0.30594286893143 ]
      - [ -0.51421596519839,  0.25692309139615 ]
  - # 6
    frequency:    4.9501754742
    eigenvector:
    - # atom 1
      - [ -0.27227626396770,  0.00000000000000 ]
      - [  0.39236952669691, -0.04451014244965 ]
      - [ -0.39649903533821,  0.33624679963809 ]
    - # atom 2
      - [  0.18280568087905, -0.20272292913955 ]
      - [ -0.29683027703699,  0.26225134899328 ]
      - [  0.51338327909259, -0.06853002918779 ]

- q-position: [   -0.0800000,    0.1600000,    0.5000000 ]
  distance:    0.0592382
  band:
  - # 1
    frequency:    2.6767640831
    eigenvector:
    - # atom 1
      - [ -0.55174372978792,  0.00000000000000 ]
      - [ -0.32536229606013, -0.23271125877872 ]
      - [ -0.13577847593126,  0.13231369150879 ]
    - # atom 2
      - [  0.38041012172571,  0.39895813374276 ]
      - [  0.39258250795065,  0.07478173431781 ]
      - [ -0.00203356226134,  0.18980008848832 ]
  - # 2
    frequency:    2.6767640831
    eigenvector:
    - # atom 1