nqpoint: 99     
npath: 11     
segment_nqpoint:
- 12
- 6
- 13
- 5
- 13
- 6
- 5
- 11
- 5
- 11
- 12
labels:
- [ '$\Gamma$', '$\mathrm{Y}$' ]
- [ '$\mathrm{Y}$', '$\mathrm{C_0}$' ]
- [ '$\Sigma_0$', '$\Gamma$' ]
- [ '$\Gamma$', '$\mathrm{Z}$' ]
- [ '$\mathrm{Z}$', '$\mathrm{A_0}$' ]
- [ '$\mathrm{E_0}$', '$\mathrm{T}$' ]
- [ '$\mathrm{T}$', '$\mathrm{Y}$' ]
- [ '$\Gamma$', '$\mathrm{S}$' ]
- [ '$\mathrm{S}$', '$\mathrm{R}$' ]
- [ '$\mathrm{R}$', '$\mathrm{Z}$' ]
- [ '$\mathrm{Z}$', '$\mathrm{T}$' ]
reciprocal_lattice:
- [   0.36108634,   0.19058983,  -0.01956505 ] # a*
- [  -0.01548754,   0.40800485,   0.01956505 ] # b*
- [   0.01548754,  -0.00894173,   0.19872852 ] # c*
natom: 2      
lattice:
- [     2.699024300000000,     0.112297090000000,    -0.205290630000000 ] # a
- [    -1.252260020000000,     2.393572150000000,     0.205290630000000 ] # b
- [     0.389008520000000,    -0.224594170000000,     4.991568129999999 ] # c
points:
- symbol: Ti # 1
  coordinates: [  0.692230559999994,  0.307769440000002,  0.250000000000001 ]
  mass: 47.867000
- symbol: Ti # 2
  coordinates: [  0.307769440000006,  0.692230559999998,  0.749999999999999 ]
  mass: 47.867000
supercell_matrix:
- [    0,   16,    0 ]
- [  -16,   16,    0 ]
- [    0,    0,    9 ]

phonon:
- q-position: [    0.0000000,    0.0000000,    0.0000000 ]
  distance:    0.0000000
  band:
  - # 1
    frequency:   -0.0039754332
    group_velocity: [     0.0000000,     0.0000000,     0.0000000 ]
    eigenvector:
    - # atom 1
      - [  0.35355339034418,  0.00000000000000 ]
      - [  0.61237243583961,  0.00000000000000 ]
      - [ -0.00000000024592,  0.00000000000000 ]
    - # atom 2
      - [  0.35355339034418,  0.00000000000000 ]
      - [  0.61237243583961,  0.00000000000000 ]
      - [ -0.00000000024592,  0.00000000000000 ]
  - # 2
    frequency:   -0.0020097454
    group_velocity: [     0.0000000,     0.0000000,     0.0000000 ]
    eigenvector:
    - # atom 1
      - [  0.05488525835117,  0.00000000000000 ]
      - [ -0.03168801837101,  0.00000000000000 ]
      - [  0.70426094447118,  0.00000000000000 ]
    - # atom 2
      - [  0.05488525835117,  0.00000000000000 ]
      - [ -0.03168801837101,  0.00000000000000 ]
      - [  0.70426094447118,  0.00000000000000 ]
  - # 3
    frequency:    0.0035737108
    group_velocity: [     0.0000000,     0.0000000,     0.0000000 ]
    eigenvector:
    - # atom 1
      - [  0.60990786893748,  0.00000000000000 ]
      - [ -0.35213047200659,  0.00000000000000 ]
      - [ -0.06337603721089,  0.00000000000000 ]
    - # atom 2
      - [  0.60990786893748,  0.00000000000000 ]
      - [ -0.35213047200659,  0.00000000000000 ]
      - [ -0.06337603721089,  0.00000000000000 ]
  - # 4
    frequency:    1.7625637556
    group_velocity: [     0.0000000,     0.0000000,     0.0000000 ]
    eigenvector:
    - # atom 1
      - [  0.35355339021680,  0.00000000000000 ]
      - [  0.61237243591315,  0.00000000000000 ]
      - [ -0.00000000019279,  0.00000000000000 ]
    - # atom 2
      - [ -0.35355339021680,  0.00000000000000 ]
      - [ -0.61237243591315,  0.00000000000000 ]
      - [  0.00000000019279,  0.00000000000000 ]
  - # 5
    frequency:    2.5446945822
    group_velocity: [     0.0000000,     0.0000000,     0.0000000 ]
    eigenvector:
    - # atom 1
      - [  0.60990786901219, -0.00000000000000 ]
      - [ -0.35213047187506,  0.00000000000000 ]
      - [ -0.06337603722277,  0.00000000000000 ]
    - # atom 2
      - [ -0.60990786901219,  0.00000000000000 ]
      - [  0.35213047187506,  0.00000000000000 ]
      - [  0.06337603722277,  0.00000000000000 ]
  - # 6
    frequency:    5.5304677345
    group_velocity: [     0.0000000,     0.0000000,     0.0000000 ]
    eigenvector:
    - # atom 1
      - [ -0.05488525834160,  0.00000000000000 ]
      - [  0.03168801841136,  0.00000000000000 ]
      - [ -0.70426094447011,  0.00000000000000 ]
    - # atom 2
      - [  0.05488525834160,  0.00000000000000 ]
      - [ -0.03168801841136,  0.00000000000000 ]
      - [  0.70426094447011,  0.00000000000000 ]

- q-position: [   -0.0454545,    0.0454545,    0.0000000 ]
  distance:    0.0198449
  band:
  - # 1
    frequency:    0.5054956078
    group_velocity: [   -21.1727682,    12.2241034,     2.2000801 ]
    eigenvector:
    - # atom 1
      - [ -0.05488525834165,  0.00000000000000 ]
      - [  0.03168801841136,  0.00000000000003 ]
      - [ -0.70426094447011,  0.00000000000019 ]
    - # atom 2
      - [ -0.05488003101838, -0.00075748178340 ]
      - [  0.03168500041489,  0.00043733230784 ]
      - [ -0.70419386999984, -0.00971963788317 ]
  - # 2
    frequency:    0.7690292132
    group_velocity: [   -30.8201801,    17.7940393,     3.2025507 ]
    eigenvector:
    - # atom 1
      - [ -0.35355339021713,  0.00000000000000 ]
      - [ -0.61237243591296,  0.00000000000047 ]
      - [  0.00000000019285,  0.00000000000002 ]
    - # atom 2
      - [ -0.34509705575023, -0.07686365751476 ]
      - [ -0.59772563494963, -0.13313176026045 ]
      - [  0.00000000018824,  0.00000000004191 ]
  - # 3
    frequency:    0.9939355094
    group_velocity: [   -49.1678682,    28.3870819,     5.1090744 ]
    eigenvector:
    - # atom 1
      - [ -0.60990786901195,  0.00000000000000 ]
      - [  0.35213047187546, -0.00000000000009 ]
      - [  0.06337603722283, -0.00000000000002 ]
    - # atom 2
      - [ -0.46293789292507,  0.39708451994103 ]
      - [  0.26727731673450, -0.22925685416676 ]
      - [  0.04810426397911, -0.04126138486646 ]
  - # 4
    frequency:    1.8983262687
    group_velocity: [   -12.2191920,     7.0547538,     1.2697065 ]
    eigenvector:
    - # atom 1
      - [ -0.35355339021687,  0.00000000000000 ]
      - [ -0.61237243591311, -0.00000000000022 ]
      - [  0.00000000019279,  0.00000000000002 ]
    - # atom 2
      - [  0.34509705574985,  0.07686365751528 ]
      - [  0.59772563494969,  0.13313176026082 ]
      - [ -0.00000000018819, -0.00000000004190 ]
  - # 5
    frequency:    3.0445938606
    group_velocity: [   -37.0785746,    21.4073250,     3.8528657 ]
    eigenvector:
    - # atom 1
      - [  0.60990786901218, -0.00000000000000 ]
      - [ -0.35213047187507,  0.00000000000006 ]
      - [ -0.06337603722277,  0.00000000000001 ]
    - # atom 2
      - [ -0.46293789292526,  0.39708451994116 ]
      - [  0.26727731673419, -0.22925685416652 ]
      - [  0.04810426397906, -0.04126138486642 ]
  - # 6
    frequency:    5.5273640670
    group_velocity: [     0.2569968,    -0.1483772,    -0.0267048 ]
    eigenvector:
    - # atom 1
      - [ -0.05488525834160,  0.00000000000000 ]
      - [  0.03168801841136, -0.00000000000000 ]
      - [ -0.70426094447011, -0.00000000000003 ]
    - # atom 2
      - [  0.05488003101832,  0.00075748178343 ]
      - [ -0.03168500041488, -0.00043733230789 ]
      - [  0.70419386999984,  0.00971963788338 ]

- q-position: [   -0.0909091,    0.0909091,    0.0000000 ]
  distance:    0.0396897
  band:
  - # 1
    frequency:    0.9560662189
    group_velocity: [   -17.6030447,    10.1631226,     1.8291471 ]
    eigenvector:
    - # atom 1
      - [ -0.05488525834164,  0.00000000000000 ]
      - [  0.03168801841133,  0.00000000000006 ]
      - [ -0.70426094447011, -0.00000000000001 ]
    - # atom 2
      - [ -0.05485232267294, -0.00190112614294 ]
      - [  0.03166900299431,  0.00109761568109 ]
      - [ -0.70383832998599, -0.02439432615313 ]
  - # 2
    frequency:    1.3479021453
    group_velocity: [   -18.7033476,    10.7983828,     1.9434805 ]
    eigenvector:
    - # atom 1
      - [  0.35355339021687,  0.00000000000000 ]
      - [  0.61237243591311, -0.00000000000032 ]
      - [ -0.00000000019285, -0.00000000000003 ]
    - # atom 2
      - [  0.27367140692279,  0.22383914038153 ]
      - [  0.47401278204179,  0.38770076441394 ]
      - [ -0.00000000014930, -0.00000000012208 ]
  - # 3
    frequency:    2.2053731538
    group_velocity: [   -54.3638211,    31.3869668,     5.6489902 ]
    eigenvector:
    - # atom 1
      - [ -0.60990786901185,  0.00000000000000 ]
      - [  0.35213047187563,  0.00000000000040 ]
      - [  0.06337603722280,  0.00000000000001 ]
    - # atom 2
      - [ -0.32219463820155,  0.51785927026244 ]
      - [  0.18601916084363, -0.29898618868167 ]
      - [  0.03347951456460, -0.05381119027289 ]
  - # 4
    frequency:    2.3520128195
    group_velocity: [   -27.1247697,    15.6604931,     2.8185575 ]
    eigenvector:
    - # atom 1
      - [ -0.35355339021729,  0.00000000000000 ]
      - [ -0.61237243591287, -0.00000000000089 ]
      - [  0.00000000019283, -0.00000000000001 ]
    - # atom 2
      - [  0.27367140692247,  0.22383914038260 ]
      - [  0.47401278204122,  0.38770076441425 ]
      - [ -0.00000000014925, -0.00000000012209 ]
  - # 5
    frequency:    4.0043916419
    group_velocity: [   -43.3742397,    25.0421290,     4.5070536 ]
    eigenvector:
    - # atom 1
      - [  0.60990786901218, -0.00000000000000 ]
      - [ -0.35213047187507,  0.00000000000007 ]
      - [ -0.06337603722276,  0.00000000000001 ]
    - # atom 2
      - [ -0.32219463820139,  0.51785927026293 ]
      - [  0.18601916084352, -0.29898618868106 ]
      - [  0.03347951456456, -0.05381119027286 ]
  - # 6
    frequency:    5.5197973820
    group_velocity: [     0.3639198,    -0.2101092,    -0.0378152 ]
    eigenvector:
    - # atom 1
      - [ -0.05488525834159,  0.00000000000000 ]
      - [  0.03168801841135, -0.00000000000001 ]
      - [ -0.70426094447011, -0.00000000000009 ]
    - # atom 2
      - [  0.05485232267290,  0.00190112614295 ]
      - [ -0.03166900299433, -0.00109761568117 ]
      - [  0.70383832998599,  0.02439432615321 ]

- q-position: [   -0.1363636,    0.1363636,    0.0000000 ]
  distance:    0.0595346
  band:
  - # 1
    frequency:    1.2974936122
    group_velocity: [   -11.6795055,     6.7431656,     1.2136272 ]
    eigenvector:
    - # atom 1
      - [ -0.05488525834164,  0.00000000000000 ]
      - [  0.03168801841131,  0.00000000000006 ]
      - [ -0.70426094447011, -0.00000000000012 ]
    - # atom 2
      - [ -0.05474878374956, -0.00386810821614 ]
      - [  0.03160922476950,  0.00223325330098 ]
      - [ -0.70250976887190, -0.04963368357759 ]
  - # 2
    frequency:    1.6574564893
    group_velocity: [    -9.2821069,     5.3590269,     0.9645115 ]
    eigenvector:
    - # atom 1
      - [  0.35355339021681,  0.00000000000000 ]
      - [  0.61237243591314, -0.00000000000018 ]
      - [ -0.00000000019287, -0.00000000000004 ]
    - # atom 2
      - [  0.20555577296832,  0.28765747675526 ]
      - [  0.35603304307554,  0.49823736562463 ]
      - [ -0.00000000011216, -0.00000000015690 ]
  - # 3
    frequency:    3.0826196093
    group_velocity: [   -34.6656316,    20.0142118,     3.6021348 ]
    eigenvector:
    - # atom 1
      - [  0.35355339021666,  0.00000000000000 ]
      - [  0.61237243591323, -0.00000000000032 ]
      - [ -0.00000000019276, -0.00000000000003 ]
    - # atom 2
      - [ -0.20555577296832, -0.28765747675506 ]
      - [ -0.35603304307565, -0.49823736562466 ]
      - [  0.00000000011210,  0.00000000015681 ]
  - # 4
    frequency:    3.4335151456
    group_velocity: [   -51.4047605,    29.6785523,     5.3415117 ]
    eigenvector:
    - # atom 1
      - [  0.60990786901226,  0.00000000000000 ]
      - [ -0.35213047187493,  0.00000000000023 ]
      - [ -0.06337603722280,  0.00000000000001 ]
    - # atom 2
      - [  0.27135302246078, -0.54621895416076 ]
      - [ -0.15666574034972,  0.31535965979107 ]
      - [ -0.02819651971346,  0.05675806876660 ]
  - # 5
    frequency:    4.9679320188
    group_velocity: [   -39.6132860,    22.8707414,     4.1162497 ]
    eigenvector:
    - # atom 1
      - [  0.60990786901218, -0.00000000000000 ]
      - [ -0.35213047187507,  0.00000000000007 ]
      - [ -0.06337603722274, -0.00000000000001 ]
    - # atom 2
      - [ -0.27135302246087,  0.54621895416063 ]
      - [  0.15666574034971, -0.31535965979122 ]
      - [  0.02819651971343, -0.05675806876655 ]
  - # 6
    frequency:    5.5128050221
    group_velocity: [     0.1865638,    -0.1077127,    -0.0193860 ]
    eigenvector:
    - # atom 1
      - [ -0.05488525834158,  0.00000000000000 ]
      - [  0.03168801841135, -0.00000000000001 ]
      - [ -0.70426094447012, -0.00000000000030 ]
    - # atom 2
      - [  0.05474878374951,  0.00386810821616 ]
      - [ -0.03160922476954, -0.00223325330107 ]
      - [  0.70250976887189,  0.04963368357777 ]

- q-position: [   -0.1818182,    0.1818182,    0.0000000 ]
  distance:    0.0793795
  band:
  - # 1
    frequency:    1.4740952619
    group_velocity: [    -3.2029758,     1.8492390,     0.3328239 ]
    eigenvector:
    - # atom 1
      - [ -0.05488525834163,  0.00000000000000 ]
      - [  0.03168801841131,  0.00000000000005 ]
      - [ -0.70426094447011, -0.00000000000009 ]
    - # atom 2
      - [ -0.05442901865173, -0.00706211808431 ]
      - [  0.03142460830575,  0.00407731574265 ]
      - [ -0.69840669863763, -0.09061766496671 ]
  - # 2
    frequency:    1.8080581374
    group_velocity: [    -4.2761380,     2.4688294,     0.4443371 ]
    eigenvector:
    - # atom 1
      - [  0.35355339021680,  0.00000000000000 ]
      - [  0.61237243591315, -0.00000000000011 ]
      - [ -0.00000000019286, -0.00000000000003 ]
    - # atom 2
      - [  0.20811175895127,  0.28581374270668 ]
      - [  0.36046014066781,  0.49504392457231 ]
      - [ -0.00000000011354, -0.00000000015589 ]
  - # 3
    frequency:    3.8922415406
    group_velocity: [   -34.9514716,    20.1792415,     3.6318367 ]
    eigenvector:
    - # atom 1
      - [ -0.35355339021674,  0.00000000000000 ]
      - [ -0.61237243591319,  0.00000000000020 ]
      - [  0.00000000019277,  0.00000000000002 ]
    - # atom 2
      - [  0.20811175895130,  0.28581374270659 ]
      - [  0.36046014066786,  0.49504392457231 ]
      - [ -0.00000000011349, -0.00000000015583 ]
  - # 4
    frequency:    4.5355991847
    group_velocity: [   -43.8227865,    25.3010976,     4.5536624 ]
    eigenvector:
    - # atom 1
      - [  0.60990786901222,  0.00000000000000 ]
      - [ -0.35213047187500,  0.00000000000012 ]
      - [ -0.06337603722280, -0.00000000000002 ]
    - # atom 2
      - [  0.28290901166424, -0.54032406924196 ]
      - [ -0.16333759381794,  0.31195624640112 ]
      - [ -0.02939731222509,  0.05614552634010 ]
  - # 5
    frequency:    5.5142066218
    group_velocity: [    -0.3785483,     0.2185550,     0.0393353 ]
    eigenvector:
    - # atom 1
      - [  0.05488525834166, -0.00000000000000 ]
      - [ -0.03168801841140,  0.00000000000001 ]
      - [  0.70426094447011, -0.00000000000019 ]
    - # atom 2
      - [ -0.05442901865177, -0.00706211808427 ]
      - [  0.03142460830584,  0.00407731574270 ]
      - [ -0.69840669863766, -0.09061766496643 ]
  - # 6
    frequency:    5.8083653845
    group_velocity: [   -33.2601419,    19.2027519,     3.4560892 ]
    eigenvector:
    - # atom 1
      - [ -0.60990786901218,  0.00000000000000 ]
      - [  0.35213047187507, -0.00000000000006 ]
      - [  0.06337603722283, -0.00000000000005 ]
    - # atom 2
      - [  0.28290901166426, -0.54032406924190 ]
      - [ -0.16333759381794,  0.31195624640119 ]
      - [ -0.02939731222516,  0.05614552634009 ]

- q-position: [   -0.2272727,    0.2272727,    0.0000000 ]
  distance:    0.0992244
  band:
  - # 1
    frequency:    1.4176421755
    group_velocity: [     8.9390927,    -5.1609876,    -0.9288686 ]
    eigenvector:
    - # atom 1
      - [ -0.05488525834161,  0.00000000000000 ]
      - [  0.03168801841133,  0.00000000000002 ]
      - [ -0.70426094447011,  0.00000000000002 ]
    - # atom 2
      - [ -0.05365242004205, -0.01156760160348 ]
      - [  0.03097623889321,  0.00667855784341 ]
      - [ -0.68844176293645, -0.14842983847895 ]
  - # 2
    frequency:    1.8751837021
    group_velocity: [    -2.0862070,     1.2044722,     0.2167795 ]
    eigenvector:
    - # atom 1
      - [  0.35355339021680,  0.00000000000000 ]
      - [  0.61237243591315, -0.00000000000008 ]
      - [ -0.00000000019282, -0.00000000000001 ]
    - # atom 2
      - [  0.23584180079422,  0.26339826258336 ]
      - [  0.40848998210403,  0.45621917406753 ]
      - [ -0.00000000012863, -0.00000000014365 ]
  - # 3
    frequency:    4.6651922878
    group_velocity: [   -31.8006556,    18.3601171,     3.3044328 ]
    eigenvector:
    - # atom 1
      - [  0.35355339021676,  0.00000000000000 ]
      - [  0.61237243591318, -0.00000000000018 ]
      - [ -0.00000000019278, -0.00000000000001 ]
    - # atom 2
      - [ -0.23584180079426, -0.26339826258327 ]
      - [ -0.40848998210409, -0.45621917406751 ]
      - [  0.00000000012860,  0.00000000014361 ]
  - # 4
    frequency:    5.4320192997
    group_velocity: [   -33.9078533,    19.5767083,     3.5233934 ]
    eigenvector:
    - # atom 1
      - [ -0.60990786901220,  0.00000000000000 ]
      - [  0.35213047187501, -0.00000000000010 ]
      - [  0.06337603722297,  0.00000000000027 ]
    - # atom 2
      - [ -0.33430187972069,  0.51012729969902 ]
      - [  0.19300927998429, -0.29452213340063 ]
      - [  0.03473758816568, -0.05300775473947 ]
  - # 5
    frequency:    5.5333450106
    group_velocity: [    -1.3429810,     0.7753704,     0.1395503 ]
    eigenvector:
    - # atom 1
      - [ -0.05488525834177,  0.00000000000000 ]
      - [  0.03168801841146, -0.00000000000001 ]
      - [ -0.70426094447010, -0.00000000000293 ]
    - # atom 2
      - [  0.05365242004212,  0.01156760160396 ]
      - [ -0.03097623889328, -0.00667855784372 ]
      - [  0.68844176293582,  0.14842983848178 ]
  - # 6
    frequency:    6.4945629375
    group_velocity: [   -26.3500467,    15.2132066,     2.7380554 ]
    eigenvector:
    - # atom 1
      - [ -0.60990786901218,  0.00000000000000 ]
      - [  0.35213047187507, -0.00000000000005 ]
      - [  0.06337603722279, -0.00000000000002 ]
    - # atom 2
      - [  0.33430187972067, -0.51012729969901 ]
      - [ -0.19300927998429,  0.29452213340071 ]
      - [ -0.03473758816582,  0.05300775473915 ]

- q-position: [   -0.2727273,    0.2727273,    0.0000000 ]
  distance:    0.1190692
  band:
  - # 1
    frequency:    0.9849727638
    group_velocity: [    32.8725013,   -18.9789475,    -3.4158091 ]
    eigenvector:
    - # atom 1
      - [  0.05488525834160,  0.00000000000000 ]
      - [ -0.03168801841135, -0.00000000000001 ]
      - [  0.70426094447011, -0.00000000000008 ]
    - # atom 2
      - [  0.05222147964276,  0.01689108188202 ]
      - [ -0.03015008507546, -0.00975207058940 ]
      - [  0.67008063159574,  0.21673814861762 ]
  - # 2
    frequency:    1.9324027071
    group_velocity: [    -3.5432586,     2.0457013,     0.3681830 ]
    eigenvector:
    - # atom 1
      - [  0.35355339021680, -0.00000000000000 ]
      - [  0.61237243591315, -0.00000000000006 ]
      - [ -0.00000000019280, -0.00000000000000 ]
    - # atom 2
      - [  0.26438536481682,  0.23473469833935 ]
      - [  0.45792888529049,  0.40657242440040 ]
      - [ -0.00000000014417, -0.00000000012800 ]
  - # 3
    frequency:    5.3385330635
    group_velocity: [   -26.4244298,    15.2561517,     2.7457846 ]
    eigenvector:
    - # atom 1
      - [  0.35355339021677,  0.00000000000000 ]
      - [  0.61237243591317, -0.00000000000017 ]
      - [ -0.00000000019277, -0.00000000000001 ]
    - # atom 2
      - [ -0.26438536481687, -0.23473469833925 ]
      - [ -0.45792888529054, -0.40657242440036 ]
      - [  0.00000000014416,  0.00000000012798 ]
  - # 4
    frequency:    5.5775618445
    group_velocity: [    -2.5015968,     1.4442976,     0.2599430 ]
    eigenvector:
    - # atom 1
      - [  0.05488525834157,  0.00000000000000 ]
      - [ -0.03168801841135,  0.00000000000001 ]
      - [  0.70426094447012, -0.00000000000070 ]
    - # atom 2
      - [ -0.05222147964276, -0.01689108188192 ]
      - [  0.03015008507547,  0.00975207058936 ]
      - [ -0.67008063159593, -0.21673814861704 ]
  - # 5
    frequency:    6.0966362587
    group_velocity: [   -24.0791744,    13.9021178,     2.5020872 ]
    eigenvector:
    - # atom 1
      - [  0.60990786901221,  0.00000000000000 ]
      - [ -0.35213047187502,  0.00000000000009 ]
      - [ -0.06337603722274,  0.00000000000006 ]
    - # atom 2
      - [  0.39009019621052, -0.46884672069180 ]
      - [ -0.22521867948341,  0.27068878003100 ]
      - [ -0.04053459883266,  0.04871825521849 ]
  - # 6
    frequency:    7.0185995035
    group_velocity: [   -19.1392732,    11.0500645,     1.9887779 ]
    eigenvector:
    - # atom 1
      - [ -0.60990786901218,  0.00000000000000 ]
      - [  0.35213047187507, -0.00000000000004 ]
      - [  0.06337603722278, -0.00000000000002 ]
    - # atom 2
      - [  0.39009019621054, -0.46884672069174 ]
      - [ -0.22521867948343,  0.27068878003105 ]
      - [ -0.04053459883266,  0.04871825521854 ]

- q-position: [   -0.3181818,    0.3181818,    0.0000000 ]
  distance:    0.1389141
  band:
  - # 1
    frequency:   -0.9514303897
    group_velocity: [     0.0000000,     0.0000000,     0.0000000 ]
    eigenvector:
    - # atom 1
      - [ -0.05488525834160,  0.00000000000000 ]
      - [  0.03168801841136,  0.00000000000000 ]
      - [ -0.70426094447011,  0.00000000000008 ]
    - # atom 2
      - [ -0.05020433517430, -0.02217918648036 ]
      - [  0.02898548618341,  0.01280515917706 ]
      - [ -0.64419761470899, -0.28459253523097 ]
  - # 2
    frequency:    2.0635237862
    group_velocity: [    -8.1808954,     4.7232422,     0.8500837 ]
    eigenvector:
    - # atom 1
      - [  0.35355339021680, -0.00000000000000 ]
      - [  0.61237243591315, -0.00000000000004 ]
      - [ -0.00000000019279,  0.00000000000000 ]
    - # atom 2
      - [  0.28561689551879,  0.20838183396832 ]
      - [  0.49470297524099,  0.36092792431998 ]
      - [ -0.00000000015574, -0.00000000011363 ]
  - # 3
    frequency:    5.6466202765
    group_velocity: [    -3.4211067,     1.9751769,     0.3554901 ]
    eigenvector:
    - # atom 1
      - [  0.05488525834159,  0.00000000000000 ]
      - [ -0.03168801841135,  0.00000000000000 ]
      - [  0.70426094447012, -0.00000000000037 ]
    - # atom 2
      - [ -0.05020433517431, -0.02217918648032 ]
      - [  0.02898548618341,  0.01280515917704 ]
      - [ -0.64419761470910, -0.28459253523071 ]
  - # 4
    frequency:    5.8701347005
    group_velocity: [   -19.6266892,    11.3314743,     2.0394257 ]
    eigenvector:
    - # atom 1
      - [  0.35355339021677,  0.00000000000000 ]
      - [  0.61237243591317, -0.00000000000016 ]
      - [ -0.00000000019279, -0.00000000000001 ]
    - # atom 2
      - [ -0.28561689551883, -0.20838183396822 ]
      - [ -0.49470297524103, -0.36092792431994 ]
      - [  0.00000000015575,  0.00000000011362 ]
  - # 5
    frequency:    6.5559636882
    group_velocity: [   -16.2722979,     9.3948156,     1.6908681 ]
    eigenvector:
    - # atom 1
      - [  0.60990786901221,  0.00000000000000 ]
      - [ -0.35213047187502,  0.00000000000008 ]
      - [ -0.06337603722276,  0.00000000000003 ]
    - # atom 2
      - [  0.41452605475605, -0.44738770502931 ]
      - [ -0.23932672897331,  0.25829941157862 ]
      - [ -0.04307374934937,  0.04648843093769 ]
  - # 6
    frequency:    7.3732129379
    group_velocity: [   -11.6992591,     6.7545704,     1.2156798 ]
    eigenvector:
    - # atom 1
      - [  0.60990786901218,  0.00000000000000 ]
      - [ -0.35213047187507,  0.00000000000004 ]
      - [ -0.06337603722278,  0.00000000000001 ]
    - # atom 2
      - [ -0.41452605475607,  0.44738770502926 ]
      - [  0.23932672897333, -0.25829941157867 ]
      - [  0.04307374934937, -0.04648843093772 ]

- q-position: [   -0.3636364,    0.3636364,    0.0000000 ]
  distance:    0.1587590
  band:
  - # 1
    frequency:   -1.8107656914
    group_velocity: [     0.0000000,     0.0000000,     0.0000000 ]
    eigenvector:
    - # atom 1
      - [  0.05488525834160,  0.00000000000000 ]
      - [ -0.03168801841136, -0.00000000000000 ]
      - [  0.70426094447011, -0.00000000000007 ]
    - # atom 2
      - [  0.04789984667346,  0.02679545244781 ]
      - [ -0.02765498913830, -0.01547036155359 ]
      - [  0.61462753893347,  0.34382621524619 ]
  - # 2
    frequency:    2.3078770498
    group_velocity: [   -12.6793412,     7.3204210,     1.3175210 ]
    eigenvector:
    - # atom 1
      - [ -0.35355339021680,  0.00000000000000 ]
      - [ -0.61237243591315,  0.00000000000003 ]
      - [  0.00000000019279,  0.00000000000000 ]
    - # atom 2
      - [ -0.29721017415021, -0.19148397352101 ]
      - [ -0.51478312288542, -0.33165997144447 ]
      - [  0.00000000016207,  0.00000000010441 ]
  - # 3
    frequency:    5.7298008629
    group_velocity: [    -3.6740647,     2.1212222,     0.3817751 ]
    eigenvector:
    - # atom 1
      - [  0.05488525834159,  0.00000000000000 ]
      - [ -0.03168801841135,  0.00000000000000 ]
      - [  0.70426094447011, -0.00000000000023 ]
    - # atom 2
      - [ -0.04789984667347, -0.02679545244778 ]
      - [  0.02765498913831,  0.01547036155358 ]
      - [ -0.61462753893355, -0.34382621524605 ]
  - # 4
    frequency:    6.2386850177
    group_velocity: [   -12.4526195,     7.1895232,     1.2939621 ]
    eigenvector:
    - # atom 1
      - [  0.35355339021678,  0.00000000000000 ]
      - [  0.61237243591317, -0.00000000000013 ]
      - [ -0.00000000019279, -0.00000000000001 ]
    - # atom 2
      - [ -0.29721017415024, -0.19148397352092 ]
      - [ -0.51478312288546, -0.33165997144443 ]
      - [  0.00000000016207,  0.00000000010441 ]
  - # 5
    frequency:    6.8649806179
    group_velocity: [   -10.9841902,     6.3417251,     1.1413764 ]
    eigenvector:
    - # atom 1
      - [  0.60990786901220,  0.00000000000000 ]
      - [ -0.35213047187503,  0.00000000000006 ]
      - [ -0.06337603722276,  0.00000000000002 ]
    - # atom 2
      - [  0.38916706692924, -0.46961324800382 ]
      - [ -0.22468571054508,  0.27113133478036 ]
      - [ -0.04043867569628,  0.04879790571318 ]
  - # 6
    frequency:    7.5619886210
    group_velocity: [    -4.9251498,     2.8435366,     0.5117764 ]
    eigenvector:
    - # atom 1
      - [  0.60990786901218,  0.00000000000000 ]
      - [ -0.35213047187507,  0.00000000000003 ]
      - [ -0.06337603722278,  0.00000000000001 ]
    - # atom 2
      - [ -0.38916706692925,  0.46961324800378 ]
      - [  0.22468571054510, -0.27113133478040 ]
      - [  0.04043867569628, -0.04879790571320 ]

- q-position: [   -0.4090909,    0.4090909,    0.0000000 ]
  distance:    0.1786038
  band:
  - # 1
    frequency:   -2.3673530286
    group_velocity: [     0.0000000,     0.0000000,     0.0000000 ]
    eigenvector:
    - # atom 1
      - [ -0.05488525834160,  0.00000000000000 ]
      - [  0.03168801841136, -0.00000000000000 ]
      - [ -0.70426094447011,  0.00000000000005 ]
    - # atom 2
      - [ -0.04557392240115, -0.03058445978268 ]
      - [  0.02631211614487,  0.01765794593993 ]
      - [ -0.58478240976251, -0.39244491478205 ]
  - # 2
    frequency:    2.6165195745
    group_velocity: [   -13.2972673,     7.6771809,     1.3817302 ]
    eigenvector:
    - # atom 1
      - [  0.35355339021680,  0.00000000000000 ]
      - [  0.61237243591315, -0.00000000000002 ]
      - [ -0.00000000019279, -0.00000000000000 ]
    - # atom 2
      - [  0.29813326236094,  0.19004356765704 ]
      - [  0.51638195856855,  0.32916511530100 ]
      - [ -0.00000000016257, -0.00000000010363 ]
  - # 3
    frequency:    5.8091109004
    group_velocity: [    -3.0803139,     1.7784201,     0.3200780 ]
    eigenvector:
    - # atom 1
      - [  0.05488525834160,  0.00000000000000 ]
      - [ -0.03168801841135, -0.00000000000000 ]
      - [  0.70426094447011, -0.00000000000014 ]
    - # atom 2
      - [ -0.04557392240115, -0.03058445978267 ]
      - [  0.02631211614487,  0.01765794593992 ]
      - [ -0.58478240976256, -0.39244491478198 ]
  - # 4
    frequency:    6.4504208843
    group_velocity: [    -6.2258497,     3.5944960,     0.6469333 ]
    eigenvector:
    - # atom 1
      - [  0.35355339021678,  0.00000000000000 ]
      - [  0.61237243591316, -0.00000000000008 ]
      - [ -0.00000000019279, -0.00000000000000 ]
    - # atom 2
      - [ -0.29813326236096, -0.19004356765698 ]
      - [ -0.51638195856857, -0.32916511530098 ]
      - [  0.00000000016257,  0.00000000010362 ]
  - # 5
    frequency:    7.0766079618
    group_velocity: [    -7.6609068,     4.4230266,     0.7960512 ]
    eigenvector:
    - # atom 1
      - [  0.60990786901220,  0.00000000000000 ]
      - [ -0.35213047187504,  0.00000000000004 ]
      - [ -0.06337603722277,  0.00000000000001 ]
    - # atom 2
      - [  0.29092682131967, -0.53604961833755 ]
      - [ -0.16796667837446,  0.30948839102427 ]
      - [ -0.03023044953810,  0.05570136456844 ]
  - # 6
    frequency:    7.6139751964
    group_velocity: [     0.0213202,    -0.0123092,    -0.0022154 ]
    eigenvector:
    - # atom 1
      - [  0.60990786901218,  0.00000000000000 ]
      - [ -0.35213047187507,  0.00000000000002 ]
      - [ -0.06337603722278,  0.00000000000001 ]
    - # atom 2
      - [ -0.29092682131968,  0.53604961833753 ]
      - [  0.16796667837446, -0.30948839102430 ]
      - [  0.03023044953810, -0.05570136456845 ]

- q-position: [   -0.4545455,    0.4545455,    0.0000000 ]
  distance:    0.1984487
  band:
  - # 1
    frequency:   -2.7013129023
    group_velocity: [     0.0000000,     0.0000000,     0.0000000 ]
    eigenvector:
    - # atom 1
      - [ -0.05488525834160,  0.00000000000000 ]
      - [  0.03168801841136, -0.00000000000000 ]
      - [ -0.70426094447011,  0.00000000000003 ]
    - # atom 2
      - [ -0.04331283543621, -0.03371038222417 ]
      - [  0.02500667698799,  0.01946269808780 ]
      - [ -0.55576924138966, -0.43255523142265 ]
  - # 2
    frequency:    2.8782066308
    group_velocity: [    -8.5934473,     4.9614291,     0.8929523 ]
    eigenvector:
    - # atom 1
      - [  0.35355339021680,  0.00000000000000 ]
      - [  0.61237243591315, -0.00000000000001 ]
      - [ -0.00000000019279, -0.00000000000000 ]
    - # atom 2
      - [  0.28696984026003,  0.20651467384891 ]