nqpoint: 191    
npath: 5      
segment_nqpoint:
- 51
- 22
- 51
- 45
- 22
labels:
- [ 'A', 'H' ]
- [ 'H', 'K' ]
- [ 'K', 'GAMMA' ]
- [ 'GAMMA', 'M' ]
- [ 'M', 'L' ]
reciprocal_lattice:
- [   0.34558293,  -0.21833453,   0.00000000 ] # a*
- [   0.34558293,   0.21833453,   0.00000000 ] # b*
- [   0.00000000,   0.00000000,   0.19952240 ] # c*
natom: 2      
lattice:
- [     1.446830710000000,    -2.290063740000000,     0.000000000000000 ] # a
- [     1.446830710000000,     2.290063740000000,     0.000000000000000 ] # b
- [     0.000000000000000,     0.000000000000000,     5.011968580000000 ] # c
points:
- symbol: Ti # 1
  coordinates: [  0.666666670000000,  0.333333330000000,  0.750000000000000 ]
  mass: 47.867000
- symbol: Ti # 2
  coordinates: [  0.333333330000000,  0.666666670000000,  0.250000000000000 ]
  mass: 47.867000
supercell_matrix:
- [    4,    0,    0 ]
- [    0,    4,    0 ]
- [    0,    0,    4 ]

phonon:
- q-position: [    0.0000000,    0.0000000,    0.5000000 ]
  distance:    0.0000000
  band:
  - # 1
    frequency:    1.3306359836
    eigenvector:
    - # atom 1
      - [  0.99995725485544,  0.00000000000000 ]
      - [  0.00000000000000, -0.00000000000000 ]
      - [  0.00000000000000,  0.00000000000000 ]
    - # atom 2
      - [ -0.00924599707881,  0.00000000000000 ]
      - [  0.00000000000000, -0.00000000000000 ]
      - [ -0.00000000000000, -0.00000000000000 ]
  - # 2
    frequency:    1.3306359836
    eigenvector:
    - # atom 1
      - [ -0.00924599707881,  0.00000000000000 ]
      - [ -0.00000000000000, -0.00000000000000 ]
      - [ -0.00000000000000,  0.00000000000000 ]
    - # atom 2
      - [ -0.99995725485544,  0.00000000000001 ]
      - [  0.00000000000000,  0.00000000000000 ]
      - [ -0.00000000000000,  0.00000000000000 ]
  - # 3
    frequency:    2.0136283864
    eigenvector:
    - # atom 1
      - [ -0.00000000000000,  0.00000000000000 ]
      - [  0.85944305880265,  0.10182805127925 ]
      - [ -0.05072952719793, -0.04418438123843 ]
    - # atom 2
      - [ -0.00000000000000,  0.00000000000000 ]
      - [ -0.31624192261832,  0.36308765144901 ]
      - [  0.01422711258912, -0.12007882904473 ]
  - # 4
    frequency:    2.0136283864
    eigenvector:
    - # atom 1
      - [ -0.00000000000000,  0.00000000000000 ]
      - [  0.47019058872049, -0.10374201913770 ]
      - [  0.11222743431591,  0.04501487425557 ]
    - # atom 2
      - [  0.00000000000000, -0.00000000000000 ]
      - [  0.32218603004039, -0.80324808459043 ]
      - [ -0.01449452648806, -0.06569363117560 ]
  - # 5
    frequency:    4.7271462902
    eigenvector:
    - # atom 1
      - [  0.00000000000000,  0.00000000000000 ]
      - [ -0.04851473806229, -0.00787408131676 ]
      - [ -0.59495464306470,  0.70931877043979 ]
    - # atom 2
      - [ -0.00000000000000, -0.00000000000000 ]
      - [ -0.09910390979540, -0.08312529392403 ]
      - [  0.05635734946762, -0.34723568849703 ]
  - # 6
    frequency:    4.7271462902
    eigenvector:
    - # atom 1
      - [ -0.00000000000000,  0.00000000000000 ]
      - [  0.12930503912754, -0.00340679951211 ]
      - [ -0.17194464690688,  0.30689381324017 ]
    - # atom 2
      - [ -0.00000000000000, -0.00000000000000 ]
      - [ -0.04287829118812, -0.02402359487300 ]
      - [  0.02438356716756,  0.92547803164345 ]

- q-position: [    0.0066667,    0.0066667,    0.5000000 ]
  distance:    0.0046078
  band:
  - # 1
    frequency:    1.3383631047
    eigenvector:
    - # atom 1
      - [  0.07726447672522,  0.00000000000000 ]
      - [  0.00000000000000, -0.00029498742819 ]
      - [ -0.00403500507522, -0.00003495345238 ]
    - # atom 2
      - [  0.99695770248708,  0.00863620068126 ]
      - [ -0.00003297208156,  0.00380627684467 ]
      - [ -0.00031271392452,  0.00000000000000 ]
  - # 2
    frequency:    1.3383631047
    eigenvector:
    - # atom 1
      - [  0.99699510756599,  0.00000000000000 ]
      - [  0.00000000000000, -0.00380641965322 ]
      - [  0.00031270219217,  0.00000270879986 ]
    - # atom 2
      - [ -0.07726157793080, -0.00066928264890 ]
      - [  0.00000255524888, -0.00029497636091 ]
      - [ -0.00403515646548, -0.00000000000000 ]
  - # 3
    frequency:    2.0242677779
    eigenvector:
    - # atom 1
      - [ -0.00195157030233,  0.00000000000000 ]
      - [  0.00000000000024, -0.44507338676463 ]
      - [ -0.12391507175417, -0.00134710117795 ]
    - # atom 2
      - [ -0.00387891209201, -0.00004216829296 ]
      - [ -0.00961686337456,  0.88462124049048 ]
      - [ -0.06234453586739, -0.00000000000003 ]
  - # 4
    frequency:    2.0242677779
    eigenvector:
    - # atom 1
      - [ -0.00387914129447,  0.00000000000000 ]
      - [  0.00000000000037, -0.88467351219989 ]
      - [  0.06234085218587,  0.00067771768377 ]
    - # atom 2
      - [  0.00195145499209,  0.00002121458900 ]
      - [  0.00483818029261, -0.44504708921371 ]
      - [ -0.12392239381736, -0.00000000000005 ]
  - # 5
    frequency:    4.7269329846
    eigenvector:
    - # atom 1
      - [  0.00304842279689,  0.00000000000000 ]
      - [ -0.00000000000000, -0.12158451108438 ]
      - [ -0.45311002487358,  0.14900190045464 ]
    - # atom 2
      - [ -0.00159153112695,  0.00052336331030 ]
      - [ -0.02087403107841, -0.06347726245296 ]
      - [  0.86788810217696, -0.00000000000001 ]
  - # 6
    frequency:    4.7269329846
    eigenvector:
    - # atom 1
      - [ -0.00167537472902,  0.00000000000000 ]
      - [  0.00000000000000,  0.06682131412943 ]
      - [ -0.82445491471444,  0.27111593738385 ]
    - # atom 2
      - [ -0.00289586543556,  0.00095228405833 ]
      - [ -0.03798127732287, -0.11549985241788 ]
      - [ -0.47698035701697,  0.00000000000001 ]

- q-position: [    0.0133333,    0.0133333,    0.5000000 ]
  distance:    0.0092155
  band:
  - # 1
    frequency:    1.3612467965
    eigenvector:
    - # atom 1
      - [ -0.41314201311562, -0.00000000000000 ]
      - [ -0.00000000000000,  0.00307458543383 ]
      - [  0.00736964277458, -0.00004144963762 ]
    - # atom 2
      - [ -0.91058584322133,  0.00512147662725 ]
      - [ -0.00003811381302, -0.00677654143355 ]
      - [  0.00334368151504,  0.00000000000000 ]
  - # 2
    frequency:    1.3612467965
    eigenvector:
    - # atom 1
      - [ -0.91060024566104,  0.00000000000000 ]
      - [ -0.00000000000000,  0.00677664861590 ]
      - [ -0.00334362862995,  0.00001880582265 ]
    - # atom 2
      - [  0.41313547868631, -0.00232362902820 ]
      - [  0.00001729234921,  0.00307453680488 ]
      - [  0.00736975933782,  0.00000000000000 ]
  - # 3
    frequency:    2.0558023600
    eigenvector:
    - # atom 1
      - [  0.00849988376251,  0.00000000000000 ]
      - [ -0.00000000000021,  0.99014656287410 ]
      - [ -0.00000000000001, -0.00000000000000 ]
    - # atom 2
      - [ -0.00000000000000, -0.00000000000000 ]
      - [ -0.00000000000001,  0.00000000000007 ]
      - [  0.13977673627834,  0.00000000000003 ]
  - # 4
    frequency:    2.0558023600
    eigenvector:
    - # atom 1
      - [  0.00000000000000,  0.00000000000000 ]
      - [ -0.00000000000001, -0.00000000000007 ]
      - [ -0.13945097383885, -0.00953739482366 ]
    - # atom 2
      - [ -0.00848007400773, -0.00057997310251 ]
      - [ -0.06756073260011,  0.98783893595157 ]
      - [ -0.00000000000001,  0.00000000000000 ]
  - # 5
    frequency:    4.7262979452
    eigenvector:
    - # atom 1
      - [ -0.00697291738431,  0.00000000000000 ]
      - [  0.00000000000000,  0.13983707658038 ]
      - [  0.00000000000000, -0.00000000000000 ]
    - # atom 2
      - [  0.00000000000000, -0.00000000000000 ]
      - [  0.00000000000000,  0.00000000000000 ]
      - [ -0.99014997370934,  0.00000000000001 ]
  - # 6
    frequency:    4.7262979452
    eigenvector:
    - # atom 1
      - [ -0.00000000000000,  0.00000000000000 ]
      - [ -0.00000000000000, -0.00000000000000 ]
      - [  0.67678327847896, -0.72274571213386 ]
    - # atom 2
      - [  0.00476610009920, -0.00508978061343 ]
      - [  0.10207205997005,  0.09558086921564 ]
      - [  0.00000000000000, -0.00000000000000 ]

- q-position: [    0.0200000,    0.0200000,    0.5000000 ]
  distance:    0.0138233
  band:
  - # 1
    frequency:    1.3984423128
    eigenvector:
    - # atom 1
      - [  0.44711020009073, -0.00000000000000 ]
      - [  0.00000000000000, -0.00479080675496 ]
      - [  0.01085625220557,  0.00019436230761 ]
    - # atom 2
      - [ -0.89418904007287, -0.01600889901787 ]
      - [  0.00017153610349, -0.00958127748489 ]
      - [ -0.00542831647262, -0.00000000000000 ]
  - # 2
    frequency:    1.3984423128
    eigenvector:
    - # atom 1
      - [ -0.89433233433338,  0.00000000000000 ]
      - [ -0.00000000000000,  0.00958281288961 ]
      - [  0.00542744672145,  0.00009716899067 ]
    - # atom 2
      - [ -0.44703856192779, -0.00800344767636 ]
      - [  0.00008575731706, -0.00479003914869 ]
      - [  0.01085799192565,  0.00000000000000 ]
  - # 3
    frequency:    2.1071385190
    eigenvector:
    - # atom 1
      - [  0.00010134949701,  0.00000000000000 ]
      - [ -0.00000000000001,  0.00813956518492 ]
      - [  0.13626417573419,  0.03837936526941 ]
    - # atom 2
      - [  0.01186311631774,  0.00334129547945 ]
      - [  0.26834560762617, -0.95274876951160 ]
      - [  0.00116413809836,  0.00000000000000 ]
  - # 4
    frequency:    2.1071385190
    eigenvector:
    - # atom 1
      - [ -0.01232468191270,  0.00000000000000 ]
      - [  0.00000000000014, -0.98981795444320 ]
      - [  0.00112054053554,  0.00031560484831 ]
    - # atom 2
      - [  0.00009755390689,  0.00002747645891 ]
      - [  0.00220668513391, -0.00783473433624 ]
      - [ -0.14156589019605, -0.00000000000002 ]
  - # 5
    frequency:    4.7252559687
    eigenvector:
    - # atom 1
      - [  0.00742417283795,  0.00000000000000 ]
      - [ -0.00000000000000, -0.10019825948648 ]
      - [ -0.68649418483627,  0.13649514511341 ]
    - # atom 2
      - [ -0.00728163517815,  0.00144780228625 ]
      - [ -0.01953985613339, -0.09827454007222 ]
      - [  0.69993227561926, -0.00000000000000 ]
  - # 6
    frequency:    4.7252559687
    eigenvector:
    - # atom 1
      - [ -0.00742417283795,  0.00000000000000 ]
      - [  0.00000000000000,  0.10019825948648 ]
      - [ -0.68649418483627,  0.13649514511341 ]
    - # atom 2
      - [ -0.00728163517815,  0.00144780228625 ]
      - [ -0.01953985613339, -0.09827454007222 ]
      - [ -0.69993227561926,  0.00000000000000 ]

- q-position: [    0.0266667,    0.0266667,    0.5000000 ]
  distance:    0.0184311
  band:
  - # 1
    frequency:    1.4486851517
    eigenvector:
    - # atom 1
      - [  0.99683756216548,  0.00000000000000 ]
      - [  0.00000000000000, -0.01349703941239 ]
      - [ -0.00124043623857, -0.00004107905990 ]
    - # atom 2
      - [  0.07656938336467,  0.00253571944119 ]
      - [ -0.00003433328211,  0.00103673860645 ]
      - [ -0.01614892770114, -0.00000000000000 ]
  - # 2
    frequency:    1.4486851517
    eigenvector:
    - # atom 1
      - [ -0.07661135909205,  0.00000000000000 ]
      - [ -0.00000000000000,  0.00103730695185 ]
      - [ -0.01614007962698, -0.00053450494041 ]
    - # atom 2
      - [  0.99629139013247,  0.03299380687208 ]
      - [ -0.00044673147223,  0.01348964432042 ]
      - [  0.00124111625206,  0.00000000000000 ]
  - # 3
    frequency:    2.1766246758
    eigenvector:
    - # atom 1
      - [  0.00053126145507,  0.00000000000000 ]
      - [ -0.00000000000001,  0.03341233705386 ]
      - [ -0.11388853149084,  0.08824216646065 ]
    - # atom 2
      - [ -0.01242892342604,  0.00963007526333 ]
      - [  0.60565907328525,  0.78168550486933 ]
      - [  0.00486804728633,  0.00000000000000 ]
  - # 4
    frequency:    2.1766246758
    eigenvector:
    - # atom 1
      - [ -0.01572311950943,  0.00000000000000 ]
      - [  0.00000000000010, -0.98886558316870 ]
      - [ -0.00384812866937,  0.00298157510822 ]
    - # atom 2
      - [ -0.00041995533649,  0.00032538630733 ]
      - [  0.02046434362848,  0.02641202202135 ]
      - [ -0.14407386142812, -0.00000000000002 ]
  - # 5
    frequency:    4.7238322812
    eigenvector:
    - # atom 1
      - [  0.00000000000000,  0.00000000000000 ]
      - [  0.00000000000000,  0.00000000000000 ]
      - [  0.88595865636436, -0.44049285527283 ]
    - # atom 2
      - [  0.01260222392717, -0.00626574339625 ]
      - [  0.06427771853401,  0.12928110062373 ]
      - [  0.00000000000000, -0.00000000000000 ]
  - # 6
    frequency:    4.7238322812
    eigenvector:
    - # atom 1
      - [  0.01407393293356,  0.00000000000000 ]
      - [ -0.00000000000000, -0.14437876602333 ]
      - [ -0.00000000000000, -0.00000000000000 ]
    - # atom 2
      - [ -0.00000000000000, -0.00000000000000 ]
      - [ -0.00000000000000, -0.00000000000000 ]
      - [  0.98942240541306, -0.00000000000000 ]

- q-position: [    0.0333333,    0.0333333,    0.5000000 ]
  distance:    0.0230389
  band:
  - # 1
    frequency:    1.5104555380
    eigenvector:
    - # atom 1
      - [  0.99930105762778,  0.00000000000000 ]
      - [  0.00000000000000, -0.01587192148472 ]
      - [ -0.00037928684997,  0.00039781439989 ]
    - # atom 2
      - [  0.01869419324907, -0.01960737439058 ]
      - [  0.00031142437454,  0.00029692029765 ]
      - [ -0.02027483856993, -0.00000000000000 ]
  - # 2
    frequency:    1.5104555380
    eigenvector:
    - # atom 1
      - [ -0.02709099466107,  0.00000000000000 ]
      - [  0.00000000000000,  0.00043028688594 ]
      - [ -0.01399069155865,  0.01467411424064 ]
    - # atom 2
      - [  0.68956962706667, -0.72325398941391 ]
      - [  0.01148745960575,  0.01095245011051 ]
      - [  0.00054964971693, -0.00000000000000 ]
  - # 3
    frequency:    2.2622509648
    eigenvector:
    - # atom 1
      - [ -0.00095032036454,  0.00000000000000 ]
      - [ -0.00000000000000, -0.05025071612930 ]
      - [ -0.10928247837349,  0.09894207533342 ]
    - # atom 2
      - [ -0.01384534570052,  0.01253528706254 ]
      - [  0.66283663413009,  0.73210946799304 ]
      - [ -0.00750095858439,  0.00000000000000 ]
  - # 4
    frequency:    2.2622509648
    eigenvector:
    - # atom 1
      - [ -0.01867691139635,  0.00000000000000 ]
      - [  0.00000000000008, -0.98759135105061 ]
      - [  0.00556052135614, -0.00503437999486 ]
    - # atom 2
      - [  0.00070448018380, -0.00063782165681 ]
      - [ -0.03372651603959, -0.03725126289589 ]
      - [ -0.14741843287302, -0.00000000000001 ]
  - # 5
    frequency:    4.7220634571
    eigenvector:
    - # atom 1
      - [  0.01771282315631,  0.00000000000000 ]
      - [ -0.00000000000000, -0.14793946674266 ]
      - [ -0.00000000000000, -0.00000000000000 ]
    - # atom 2
      - [ -0.00000000000000,  0.00000000000000 ]
      - [ -0.00000000000000, -0.00000000000000 ]
      - [  0.98883778754441, -0.00000000000000 ]
  - # 6
    frequency:    4.7220634571
    eigenvector:
    - # atom 1
      - [  0.00000000000000,  0.00000000000000 ]
      - [ -0.00000000000000, -0.00000000000000 ]
      - [  0.86004749263109, -0.48797385226536 ]
    - # atom 2
      - [  0.01540583231638, -0.00874096303656 ]
      - [  0.07300549432660,  0.12867122296081 ]
      - [  0.00000000000000, -0.00000000000000 ]

- q-position: [    0.0400000,    0.0400000,    0.5000000 ]
  distance:    0.0276466
  band:
  - # 1
    frequency:    1.5821362945
    eigenvector:
    - # atom 1
      - [  0.16859761274852,  0.00000000000000 ]
      - [  0.00000000000000, -0.00299493746488 ]
      - [ -0.02405199031764,  0.00096350095508 ]
    - # atom 2
      - [  0.98443284534174, -0.03943548846360 ]
      - [  0.00070052487648,  0.01748728681332 ]
      - [ -0.00411923288480, -0.00000000000000 ]
  - # 2
    frequency:    1.5821362945
    eigenvector:
    - # atom 1
      - [ -0.98522240369269,  0.00000000000000 ]
      - [ -0.00000000000000,  0.01750131238491 ]
      - [ -0.00411593172689,  0.00016488049835 ]
    - # atom 2
      - [  0.16846249843058, -0.00674845515857 ]
      - [  0.00011987833549,  0.00299253731860 ]
      - [  0.02407128106957,  0.00000000000000 ]
  - # 3
    frequency:    2.3618454861
    eigenvector:
    - # atom 1
      - [  0.00141313627760,  0.00000000000000 ]
      - [ -0.00000000000002,  0.06565735221548 ]
      - [  0.00479782695584,  0.15162101301379 ]
    - # atom 2
      - [  0.00067116470043,  0.02121015883110 ]
      - [  0.98546961888675, -0.03118375618043 ]
      - [  0.01010181751312,  0.00000000000000 ]
  - # 4
    frequency:    2.3618454861
    eigenvector:
    - # atom 1
      - [ -0.02122077519073,  0.00000000000000 ]
      - [  0.00000000000006, -0.98596287779932 ]
      - [  0.00031949743890,  0.01009676376147 ]
    - # atom 2
      - [  0.00004469427615,  0.00141242931177 ]
      - [  0.06562450506182, -0.00207659224202 ]
      - [ -0.15169690415702, -0.00000000000001 ]
  - # 5
    frequency:    4.7199988599
    eigenvector:
    - # atom 1
      - [ -0.02143226501487,  0.00000000000000 ]
      - [  0.00000000000000,  0.15248295024728 ]
      - [  0.00000000000000,  0.00000000000000 ]
    - # atom 2
      - [  0.00000000000000, -0.00000000000000 ]
      - [  0.00000000000000,  0.00000000000000 ]
      - [ -0.98807368546087,  0.00000000000000 ]
  - # 6
    frequency:    4.7199988599
    eigenvector:
    - # atom 1
      - [ -0.00000000000000,  0.00000000000000 ]
      - [ -0.00000000000000,  0.00000000000000 ]
      - [ -0.98108044905849, -0.11734888314509 ]
    - # atom 2
      - [ -0.02128057501635, -0.00254540971971 ]
      - [  0.01810968571827, -0.15140372980644 ]
      - [ -0.00000000000000,  0.00000000000000 ]

- q-position: [    0.0466667,    0.0466667,    0.5000000 ]
  distance:    0.0322544
  band:
  - # 1
    frequency:    1.6621358483
    eigenvector:
    - # atom 1
      - [ -0.87381444403568,  0.00000000000000 ]
      - [ -0.00000000000000,  0.01680859632992 ]
      - [  0.01390119025724, -0.00002371977943 ]
    - # atom 2
      - [ -0.48503362805379,  0.00082761910758 ]
      - [ -0.00001591998803, -0.00933005229662 ]
      - [  0.02504374982165,  0.00000000000000 ]
  - # 2
    frequency:    1.6621358483
    eigenvector:
    - # atom 1
      - [ -0.48503433414183,  0.00000000000000 ]
      - [ -0.00000000000000,  0.00933006587885 ]
      - [ -0.02504371336425,  0.00004273240968 ]
    - # atom 2
      - [  0.87381317198154, -0.00149099863547 ]
      - [  0.00002868068199,  0.01680857186083 ]
      - [  0.01390121049391,  0.00000000000000 ]
  - # 3
    frequency:    2.4732319306
    eigenvector:
    - # atom 1
      - [ -0.00132941239004, -0.00000000000000 ]
      - [  0.00000000000002, -0.05583394620461 ]
      - [ -0.05452001981298, -0.14756135143446 ]
    - # atom 2
      - [ -0.00813355245824, -0.02201389502090 ]
      - [ -0.92456083572036,  0.34160079581659 ]
      - [ -0.00891118489943, -0.00000000000000 ]
  - # 4
    frequency:    2.4732319306
    eigenvector:
    - # atom 1
      - [ -0.02346840960913,  0.00000000000000 ]
      - [  0.00000000000005, -0.98564894493448 ]
      - [  0.00308838950111,  0.00835889146964 ]
    - # atom 2
      - [  0.00046074044186,  0.00124701866386 ]
      - [  0.05237349487340, -0.01935062230332 ]
      - [ -0.15731110894521, -0.00000000000001 ]
  - # 5
    frequency:    4.7177027931
    eigenvector:
    - # atom 1
      - [ -0.00000000000000,  0.00000000000000 ]
      - [ -0.00000000000000,  0.00000000000000 ]
      - [ -0.96962890221023,  0.18485985158054 ]
    - # atom 2
      - [ -0.02480162180450,  0.00472843179002 ]
      - [ -0.02961650512148, -0.15534481447821 ]
      - [ -0.00000000000000,  0.00000000000000 ]
  - # 6
    frequency:    4.7177027931
    eigenvector:
    - # atom 1
      - [ -0.02524833680318,  0.00000000000000 ]
      - [  0.00000000000000,  0.15814281128424 ]
      - [  0.00000000000000,  0.00000000000000 ]
    - # atom 2
      - [ -0.00000000000000,  0.00000000000000 ]
      - [  0.00000000000000,  0.00000000000000 ]
      - [ -0.98709339615246,  0.00000000000000 ]

- q-position: [    0.0533333,    0.0533333,    0.5000000 ]
  distance:    0.0368622
  band:
  - # 1
    frequency:    1.7489675951
    eigenvector:
    - # atom 1
      - [  0.12915505033220,  0.00000000000000 ]
      - [  0.00000000000000, -0.00263081306865 ]
      - [  0.00232571632905,  0.03262246632063 ]
    - # atom 2
      - [ -0.07046189760323, -0.98835823300445 ]
      - [  0.02013228092290, -0.00143526776986 ]
      - [ -0.00426298495718, -0.00000000000000 ]
  - # 2
    frequency:    1.7489675951
    eigenvector:
    - # atom 1
      - [ -0.99086672956636,  0.00000000000000 ]
      - [ -0.00000000000000,  0.02018337753523 ]
      - [  0.00030314673061,  0.00425219270552 ]
    - # atom 2
      - [ -0.00918439348088, -0.12882807901503 ]
      - [  0.00262415285357, -0.00018708074005 ]
      - [  0.03270526357154,  0.00000000000000 ]
  - # 3
    frequency:    2.5943350206
    eigenvector:
    - # atom 1
      - [  0.00076692283823,  0.00000000000000 ]
      - [  0.00000000000002,  0.02964332821667 ]
      - [ -0.14262398172237, -0.08157437925389 ]
    - # atom 2
      - [ -0.02213492006169, -0.01266015954723 ]
      - [ -0.48934422868194,  0.85556547246608 ]
      - [  0.00494158499592, -0.00000000000000 ]
  - # 4
    frequency:    2.5943350206
    eigenvector:
    - # atom 1
      - [ -0.02549969266283,  0.00000000000000 ]
      - [  0.00000000000004, -0.98562165754433 ]
      - [ -0.00428952577229, -0.00245341209762 ]
    - # atom 2
      - [ -0.00066572471842, -0.00038076402021 ]
      - [ -0.01471740344861,  0.02573178857934 ]
      - [ -0.16430453284374, -0.00000000000001 ]
  - # 5
    frequency:    4.7152576633
    eigenvector:
    - # atom 1
      - [ -0.01452389849913,  0.00000000000000 ]
      - [  0.00000000000000,  0.08218391356239 ]
      - [  0.80367886419894, -0.29182161659054 ]
    - # atom 2
      - [  0.02378529031152, -0.00863661118761 ]
      - [  0.04887052242597,  0.13458977581919 ]
      - [ -0.49074659575904,  0.00000000000000 ]
  - # 6
    frequency:    4.7152576633
    eigenvector:
    - # atom 1
      - [ -0.02530476413661,  0.00000000000000 ]
      - [  0.00000000000000,  0.14318776385309 ]
      - [ -0.46127876104698,  0.16749365915176 ]
    - # atom 2
      - [ -0.01365178273909,  0.00495706119164 ]
      - [ -0.02804967884634, -0.07724902047953 ]
      - [ -0.85502021769641,  0.00000000000000 ]

- q-position: [    0.0600000,    0.0600000,    0.5000000 ]
  distance:    0.0414700
  band:
  - # 1
    frequency:    1.8412905435
    eigenvector:
    - # atom 1
      - [  0.10768963299031,  0.00000000000000 ]
      - [ -0.00000000000000, -0.00228708953404 ]
      - [ -0.02481984220628, -0.02778363219352 ]
    - # atom 2
      - [  0.66171437537189,  0.74073109207145 ]
      - [ -0.01573148947742,  0.01405334924460 ]
      - [ -0.00403926497225,  0.00000000000000 ]
  - # 2
    frequency:    1.8412905435
    eigenvector:
    - # atom 1
      - [  0.99325146128016,  0.00000000000000 ]
      - [  0.00000000000000, -0.02109446340083 ]
      - [  0.00269100001587,  0.00301233803392 ]
    - # atom 2
      - [ -0.07174394501908, -0.08031104162371 ]
      - [  0.00170562883042, -0.00152368265382 ]
      - [ -0.03725526519848, -0.00000000000000 ]
  - # 3
    frequency:    2.7232366032
    eigenvector:
    - # atom 1
      - [  0.00050893073810,  0.00000000000000 ]
      - [  0.00000000000002,  0.01829540992730 ]
      - [ -0.07477305918024, -0.15565619550445 ]
    - # atom 2
      - [ -0.01185740910843, -0.02468374586506 ]
      - [ -0.88734913286799,  0.42625871081099 ]
      - [  0.00320932742141, -0.00000000000000 ]
  - # 4
    frequency:    2.7232366032
    eigenvector:
    - # atom 1
      - [  0.02738403660339,  0.00000000000000 ]
      - [ -0.00000000000004,  0.98442113556334 ]
      - [  0.00138965298468,  0.00289286140006 ]
    - # atom 2
      - [  0.00022036926319,  0.00045874599074 ]
      - [  0.01649133236577, -0.00792199351235 ]
      - [  0.17268428295039,  0.00000000000001 ]
  - # 5
    frequency:    4.7127686307
    eigenvector:
    - # atom 1
      - [  0.01110589475508,  0.00000000000000 ]
      - [ -0.00000000000000, -0.05801012187975 ]
      - [ -0.92200618188359, -0.10232574663838 ]
    - # atom 2
      - [ -0.03112967152689, -0.00345482160986 ]
      - [  0.01804578803244, -0.16260158043776 ]
      - [  0.32893709176108, -0.00000000000000 ]
  - # 6
    frequency:    4.7127686307
    eigenvector:
    - # atom 1
      - [  0.03132079567520,  0.00000000000000 ]
      - [ -0.00000000000000, -0.16359989127921 ]
      - [  0.32692986875932,  0.03628320891606 ]
    - # atom 2
      - [  0.01103812493536,  0.00122502906997 ]
      - [ -0.00639877175341,  0.05765613549789 ]
      - [  0.92766694338898, -0.00000000000000 ]

- q-position: [    0.0666667,    0.0666667,    0.5000000 ]
  distance:    0.0460777
  band:
  - # 1
    frequency:    1.9379218711
    eigenvector:
    - # atom 1
      - [ -0.54979345252599,  0.00000000000000 ]
      - [ -0.00000000000000,  0.01204568264554 ]
      - [  0.03194374894629,  0.01477750767085 ]
    - # atom 2
      - [ -0.75688290040619, -0.35014183480748 ]
      - [  0.00767142170144, -0.01658290249955 ]
      - [  0.02320367392417,  0.00000000000000 ]
  - # 2
    frequency:    1.9379218711
    eigenvector:
    - # atom 1
      - [ -0.83394905684319,  0.00000000000000 ]
      - [ -0.00000000000000,  0.01827138107071 ]
      - [ -0.02105939670498, -0.00974229408309 ]
    - # atom 2
      - [  0.49898643035512,  0.23083626829833 ]
      - [ -0.00505750008158,  0.01093252776452 ]
      - [  0.03519627579313,  0.00000000000000 ]
  - # 3
    frequency:    2.8581929189
    eigenvector:
    - # atom 1
      - [ -0.01998194163466,  0.00000000000000 ]
      - [  0.00000000000003, -0.67135345218847 ]
      - [  0.12456028734012, -0.04816794090029 ]
    - # atom 2
      - [  0.01992146735220, -0.00770370783946 ]
      - [ -0.25882924428648, -0.66932163671041 ]
      - [ -0.12493840677611, -0.00000000000001 ]
  - # 4
    frequency:    2.8581929189
    eigenvector:
    - # atom 1
      - [ -0.02135911926884,  0.00000000000000 ]
      - [  0.00000000000003, -0.71762387855103 ]
      - [ -0.11652898044617,  0.04506220371807 ]
    - # atom 2
      - [ -0.01863698558438,  0.00720699381286 ]
      - [  0.24214064201698,  0.62616560688765 ]
      - [ -0.13354930068266, -0.00000000000001 ]
  - # 5
    frequency:    4.7103705135
    eigenvector:
    - # atom 1
      - [  0.03742512768825,  0.00000000000000 ]
      - [ -0.00000000000000, -0.18390641460097 ]
      - [ -0.00000000000000,  0.00000000000000 ]
    - # atom 2
      - [  0.00000000000000,  0.00000000000000 ]
      - [ -0.00000000000000,  0.00000000000000 ]
      - [  0.98223102704310, -0.00000000000000 ]
  - # 6
    frequency:    4.7103705135
    eigenvector:
    - # atom 1
      - [  0.00000000000000,  0.00000000000000 ]
      - [  0.00000000000000,  0.00000000000000 ]
      - [  0.66277223605321, -0.72492120509967 ]
    - # atom 2
      - [  0.02525305643947, -0.02762106665114 ]
      - [  0.13572943231027,  0.12409307207139 ]
      - [  0.00000000000000, -0.00000000000000 ]

- q-position: [    0.0733333,    0.0733333,    0.5000000 ]
  distance:    0.0506855
  band:
  - # 1
    frequency:    2.0378321123
    eigenvector:
    - # atom 1
      - [  0.07450386477989,  0.00000000000000 ]
      - [  0.00000000000000, -0.00167218148624 ]
      - [ -0.04691112054905,  0.00167463843091 ]
    - # atom 2
      - [  0.99522299032377, -0.03552758167816 ]
      - [  0.00079738902819,  0.02233700847623 ]
      - [ -0.00351183585592, -0.00000000000000 ]
  - # 2
    frequency:    2.0378321123
    eigenvector:
    - # atom 1
      - [  0.99585692221769,  0.00000000000000 ]
      - [  0.00000000000000, -0.02235123658614 ]
      - [  0.00350960032921, -0.00012528610529 ]
    - # atom 2
      - [ -0.07445643791058,  0.00265795425252 ]
      - [ -0.00005965572263, -0.00167111702693 ]
      - [ -0.04694100174732, -0.00000000000000 ]
  - # 3
    frequency:    2.9976243553
    eigenvector:
    - # atom 1
      - [ -0.02853581731604,  0.00000000000000 ]
      - [  0.00000000000003, -0.89636613350252 ]
      - [  0.07792504289483, -0.01325375148341 ]
    - # atom 2
      - [  0.01245190537623, -0.00211786164268 ]
      - [ -0.06652619866890, -0.39113883275929 ]
      - [ -0.17857948010404, -0.00000000000000 ]
  - # 4
    frequency:    2.9976243553
    eigenvector:
    - # atom 1
      - [ -0.01263072782685,  0.00000000000000 ]
      - [  0.00000000000001, -0.39675599756227 ]
      - [ -0.17605119981001,  0.02994337588993 ]
    - # atom 2
      - [ -0.02813181488221,  0.00478475300590 ]
      - [  0.15029850044824,  0.88367562264287 ]
      - [ -0.07904412842549, -0.00000000000000 ]
  - # 5
    frequency:    4.7082381901
    eigenvector:
    - # atom 1
      - [  0.04176525408330,  0.00000000000000 ]
      - [  0.00000000000000, -0.19649442521419 ]
      - [ -0.00000000000000, -0.00000000000000 ]
    - # atom 2
      - [ -0.00000000000000,  0.00000000000000 ]
      - [ -0.00000000000000,  0.00000000000000 ]
      - [  0.97961502867764, -0.00000000000000 ]
  - # 6
    frequency:    4.7082381901
    eigenvector:
    - # atom 1
      - [  0.00000000000000,  0.00000000000000 ]
      - [  0.00000000000000,  0.00000000000000 ]
      - [  0.88956153950454, -0.41027536100212 ]
    - # atom 2
      - [  0.03792588173162, -0.01749182504836 ]
      - [  0.08229439002021,  0.17843119825708 ]
      - [  0.00000000000000, -0.00000000000000 ]

- q-position: [    0.0800000,    0.0800000,    0.5000000 ]
  distance:    0.0552933
  band:
  - # 1
    frequency:    2.1401312967
    eigenvector:
    - # atom 1
      - [  0.99729503599501,  0.00000000000000 ]
      - [  0.00000000000000, -0.02283025752565 ]
      - [ -0.00242422438183, -0.00010786183055 ]
    - # atom 2
      - [  0.04630872084271,  0.00206042948747 ]
      - [ -0.00004716772281,  0.00106010757535 ]
      - [ -0.05220759498735, -0.00000000000000 ]
  - # 2
    frequency:    2.1401312967
    eigenvector:
    - # atom 1
      - [ -0.04635453587041,  0.00000000000000 ]