phonopy:
  version: 2.6.1
  frequency_unit_conversion_factor: 15.633302
  symmetry_tolerance: 1.00000e-05
  configuration:
    cell_filename: "AgBr.poscar"
    dim: "2 2 2"
    create_displacements: ".true."

physical_unit:
  atomic_mass: "AMU"
  length: "Angstrom"
  force_constants: "eV/Angstrom^2"

supercell_matrix:
- [   2,   0,   0 ]
- [   0,   2,   0 ]
- [   0,   0,   2 ]

space_group:
  type: "Fm-3m"
  number: 225
  Hall_symbol: "-F 4 2 3"

primitive_cell:
  lattice:
  - [     5.823447283892974,     0.000000000000000,     0.000000000000000 ] # a
  - [     0.000000000000000,     5.823447283892974,     0.000000000000000 ] # b
  - [     0.000000000000000,     0.000000000000000,     5.823447283892974 ] # c
  points:
  - symbol: Ag # 1
    coordinates: [  0.000000000000000,  0.000000000000000,  0.000000000000000 ]
    mass: 107.868200
  - symbol: Ag # 2
    coordinates: [  0.000000000000000,  0.500000000000000,  0.500000000000000 ]
    mass: 107.868200
  - symbol: Ag # 3
    coordinates: [  0.500000000000000,  0.000000000000000,  0.500000000000000 ]
    mass: 107.868200
  - symbol: Ag # 4
    coordinates: [  0.500000000000000,  0.500000000000000,  0.000000000000000 ]
    mass: 107.868200
  - symbol: Br # 5
    coordinates: [  0.500000000000000,  0.500000000000000,  0.500000000000000 ]
    mass: 79.904000
  - symbol: Br # 6
    coordinates: [  0.500000000000000,  0.000000000000000,  0.000000000000000 ]
    mass: 79.904000
  - symbol: Br # 7
    coordinates: [  0.000000000000000,  0.500000000000000,  0.000000000000000 ]
    mass: 79.904000
  - symbol: Br # 8
    coordinates: [  0.000000000000000,  0.000000000000000,  0.500000000000000 ]
    mass: 79.904000
  reciprocal_lattice: # without 2pi
  - [     0.171719593438390,     0.000000000000000,     0.000000000000000 ] # a*
  - [     0.000000000000000,     0.171719593438390,     0.000000000000000 ] # b*
  - [     0.000000000000000,     0.000000000000000,     0.171719593438390 ] # c*

unit_cell:
  lattice:
  - [     5.823447283892974,     0.000000000000000,     0.000000000000000 ] # a
  - [     0.000000000000000,     5.823447283892974,     0.000000000000000 ] # b
  - [     0.000000000000000,     0.000000000000000,     5.823447283892974 ] # c
  points:
  - symbol: Ag # 1
    coordinates: [  0.000000000000000,  0.000000000000000,  0.000000000000000 ]
    mass: 107.868200
    reduced_to: 1
  - symbol: Ag # 2
    coordinates: [  0.000000000000000,  0.500000000000000,  0.500000000000000 ]
    mass: 107.868200
    reduced_to: 2
  - symbol: Ag # 3
    coordinates: [  0.500000000000000,  0.000000000000000,  0.500000000000000 ]
    mass: 107.868200
    reduced_to: 3
  - symbol: Ag # 4
    coordinates: [  0.500000000000000,  0.500000000000000,  0.000000000000000 ]
    mass: 107.868200
    reduced_to: 4
  - symbol: Br # 5
    coordinates: [  0.500000000000000,  0.500000000000000,  0.500000000000000 ]
    mass: 79.904000
    reduced_to: 5
  - symbol: Br # 6
    coordinates: [  0.500000000000000,  0.000000000000000,  0.000000000000000 ]
    mass: 79.904000
    reduced_to: 6
  - symbol: Br # 7
    coordinates: [  0.000000000000000,  0.500000000000000,  0.000000000000000 ]
    mass: 79.904000
    reduced_to: 7
  - symbol: Br # 8
    coordinates: [  0.000000000000000,  0.000000000000000,  0.500000000000000 ]
    mass: 79.904000
    reduced_to: 8

supercell:
  lattice:
  - [    11.646894567785948,     0.000000000000000,     0.000000000000000 ] # a
  - [     0.000000000000000,    11.646894567785948,     0.000000000000000 ] # b
  - [     0.000000000000000,     0.000000000000000,    11.646894567785948 ] # c
  points:
  - symbol: Ag # 1
    coordinates: [  0.000000000000000,  0.000000000000000,  0.000000000000000 ]
    mass: 107.868200
    reduced_to: 1
  - symbol: Ag # 2
    coordinates: [  0.500000000000000,  0.000000000000000,  0.000000000000000 ]
    mass: 107.868200
    reduced_to: 1
  - symbol: Ag # 3
    coordinates: [  0.000000000000000,  0.500000000000000,  0.000000000000000 ]
    mass: 107.868200
    reduced_to: 1
  - symbol: Ag # 4
    coordinates: [  0.500000000000000,  0.500000000000000,  0.000000000000000 ]
    mass: 107.868200
    reduced_to: 1
  - symbol: Ag # 5
    coordinates: [  0.000000000000000,  0.000000000000000,  0.500000000000000 ]
    mass: 107.868200
    reduced_to: 1
  - symbol: Ag # 6
    coordinates: [  0.500000000000000,  0.000000000000000,  0.500000000000000 ]
    mass: 107.868200
    reduced_to: 1
  - symbol: Ag # 7
    coordinates: [  0.000000000000000,  0.500000000000000,  0.500000000000000 ]
    mass: 107.868200
    reduced_to: 1
  - symbol: Ag # 8
    coordinates: [  0.500000000000000,  0.500000000000000,  0.500000000000000 ]
    mass: 107.868200
    reduced_to: 1
  - symbol: Ag # 9
    coordinates: [  0.000000000000000,  0.250000000000000,  0.250000000000000 ]
    mass: 107.868200
    reduced_to: 9
  - symbol: Ag # 10
    coordinates: [  0.500000000000000,  0.250000000000000,  0.250000000000000 ]
    mass: 107.868200
    reduced_to: 9
  - symbol: Ag # 11
    coordinates: [  0.000000000000000,  0.750000000000000,  0.250000000000000 ]
    mass: 107.868200
    reduced_to: 9
  - symbol: Ag # 12
    coordinates: [  0.500000000000000,  0.750000000000000,  0.250000000000000 ]
    mass: 107.868200
    reduced_to: 9
  - symbol: Ag # 13
    coordinates: [  0.000000000000000,  0.250000000000000,  0.750000000000000 ]
    mass: 107.868200
    reduced_to: 9
  - symbol: Ag # 14
    coordinates: [  0.500000000000000,  0.250000000000000,  0.750000000000000 ]
    mass: 107.868200
    reduced_to: 9
  - symbol: Ag # 15
    coordinates: [  0.000000000000000,  0.750000000000000,  0.750000000000000 ]
    mass: 107.868200
    reduced_to: 9
  - symbol: Ag # 16
    coordinates: [  0.500000000000000,  0.750000000000000,  0.750000000000000 ]
    mass: 107.868200
    reduced_to: 9
  - symbol: Ag # 17
    coordinates: [  0.250000000000000,  0.000000000000000,  0.250000000000000 ]
    mass: 107.868200
    reduced_to: 17
  - symbol: Ag # 18
    coordinates: [  0.750000000000000,  0.000000000000000,  0.250000000000000 ]
    mass: 107.868200
    reduced_to: 17
  - symbol: Ag # 19
    coordinates: [  0.250000000000000,  0.500000000000000,  0.250000000000000 ]
    mass: 107.868200
    reduced_to: 17
  - symbol: Ag # 20
    coordinates: [  0.750000000000000,  0.500000000000000,  0.250000000000000 ]
    mass: 107.868200
    reduced_to: 17
  - symbol: Ag # 21
    coordinates: [  0.250000000000000,  0.000000000000000,  0.750000000000000 ]
    mass: 107.868200
    reduced_to: 17
  - symbol: Ag # 22
    coordinates: [  0.750000000000000,  0.000000000000000,  0.750000000000000 ]
    mass: 107.868200
    reduced_to: 17
  - symbol: Ag # 23
    coordinates: [  0.250000000000000,  0.500000000000000,  0.750000000000000 ]
    mass: 107.868200
    reduced_to: 17
  - symbol: Ag # 24
    coordinates: [  0.750000000000000,  0.500000000000000,  0.750000000000000 ]
    mass: 107.868200
    reduced_to: 17
  - symbol: Ag # 25
    coordinates: [  0.250000000000000,  0.250000000000000,  0.000000000000000 ]
    mass: 107.868200
    reduced_to: 25
  - symbol: Ag # 26
    coordinates: [  0.750000000000000,  0.250000000000000,  0.000000000000000 ]
    mass: 107.868200
    reduced_to: 25
  - symbol: Ag # 27
    coordinates: [  0.250000000000000,  0.750000000000000,  0.000000000000000 ]
    mass: 107.868200
    reduced_to: 25
  - symbol: Ag # 28
    coordinates: [  0.750000000000000,  0.750000000000000,  0.000000000000000 ]
    mass: 107.868200
    reduced_to: 25
  - symbol: Ag # 29
    coordinates: [  0.250000000000000,  0.250000000000000,  0.500000000000000 ]
    mass: 107.868200
    reduced_to: 25
  - symbol: Ag # 30
    coordinates: [  0.750000000000000,  0.250000000000000,  0.500000000000000 ]
    mass: 107.868200
    reduced_to: 25
  - symbol: Ag # 31
    coordinates: [  0.250000000000000,  0.750000000000000,  0.500000000000000 ]
    mass: 107.868200
    reduced_to: 25
  - symbol: Ag # 32
    coordinates: [  0.750000000000000,  0.750000000000000,  0.500000000000000 ]
    mass: 107.868200
    reduced_to: 25
  - symbol: Br # 33
    coordinates: [  0.250000000000000,  0.250000000000000,  0.250000000000000 ]
    mass: 79.904000
    reduced_to: 33
  - symbol: Br # 34
    coordinates: [  0.750000000000000,  0.250000000000000,  0.250000000000000 ]
    mass: 79.904000
    reduced_to: 33
  - symbol: Br # 35
    coordinates: [  0.250000000000000,  0.750000000000000,  0.250000000000000 ]
    mass: 79.904000
    reduced_to: 33
  - symbol: Br # 36
    coordinates: [  0.750000000000000,  0.750000000000000,  0.250000000000000 ]
    mass: 79.904000
    reduced_to: 33
  - symbol: Br # 37
    coordinates: [  0.250000000000000,  0.250000000000000,  0.750000000000000 ]
    mass: 79.904000
    reduced_to: 33
  - symbol: Br # 38
    coordinates: [  0.750000000000000,  0.250000000000000,  0.750000000000000 ]
    mass: 79.904000
    reduced_to: 33
  - symbol: Br # 39
    coordinates: [  0.250000000000000,  0.750000000000000,  0.750000000000000 ]
    mass: 79.904000
    reduced_to: 33
  - symbol: Br # 40
    coordinates: [  0.750000000000000,  0.750000000000000,  0.750000000000000 ]
    mass: 79.904000
    reduced_to: 33
  - symbol: Br # 41
    coordinates: [  0.250000000000000,  0.000000000000000,  0.000000000000000 ]
    mass: 79.904000
    reduced_to: 41
  - symbol: Br # 42
    coordinates: [  0.750000000000000,  0.000000000000000,  0.000000000000000 ]
    mass: 79.904000
    reduced_to: 41
  - symbol: Br # 43
    coordinates: [  0.250000000000000,  0.500000000000000,  0.000000000000000 ]
    mass: 79.904000
    reduced_to: 41
  - symbol: Br # 44
    coordinates: [  0.750000000000000,  0.500000000000000,  0.000000000000000 ]
    mass: 79.904000
    reduced_to: 41
  - symbol: Br # 45
    coordinates: [  0.250000000000000,  0.000000000000000,  0.500000000000000 ]
    mass: 79.904000
    reduced_to: 41
  - symbol: Br # 46
    coordinates: [  0.750000000000000,  0.000000000000000,  0.500000000000000 ]
    mass: 79.904000
    reduced_to: 41
  - symbol: Br # 47
    coordinates: [  0.250000000000000,  0.500000000000000,  0.500000000000000 ]
    mass: 79.904000
    reduced_to: 41
  - symbol: Br # 48
    coordinates: [  0.750000000000000,  0.500000000000000,  0.500000000000000 ]
    mass: 79.904000
    reduced_to: 41
  - symbol: Br # 49
    coordinates: [  0.000000000000000,  0.250000000000000,  0.000000000000000 ]
    mass: 79.904000
    reduced_to: 49
  - symbol: Br # 50
    coordinates: [  0.500000000000000,  0.250000000000000,  0.000000000000000 ]
    mass: 79.904000
    reduced_to: 49
  - symbol: Br # 51
    coordinates: [  0.000000000000000,  0.750000000000000,  0.000000000000000 ]
    mass: 79.904000
    reduced_to: 49
  - symbol: Br # 52
    coordinates: [  0.500000000000000,  0.750000000000000,  0.000000000000000 ]
    mass: 79.904000
    reduced_to: 49
  - symbol: Br # 53
    coordinates: [  0.000000000000000,  0.250000000000000,  0.500000000000000 ]
    mass: 79.904000
    reduced_to: 49
  - symbol: Br # 54
    coordinates: [  0.500000000000000,  0.250000000000000,  0.500000000000000 ]
    mass: 79.904000
    reduced_to: 49
  - symbol: Br # 55
    coordinates: [  0.000000000000000,  0.750000000000000,  0.500000000000000 ]
    mass: 79.904000
    reduced_to: 49
  - symbol: Br # 56
    coordinates: [  0.500000000000000,  0.750000000000000,  0.500000000000000 ]
    mass: 79.904000
    reduced_to: 49
  - symbol: Br # 57
    coordinates: [  0.000000000000000,  0.000000000000000,  0.250000000000000 ]
    mass: 79.904000
    reduced_to: 57
  - symbol: Br # 58
    coordinates: [  0.500000000000000,  0.000000000000000,  0.250000000000000 ]
    mass: 79.904000
    reduced_to: 57
  - symbol: Br # 59
    coordinates: [  0.000000000000000,  0.500000000000000,  0.250000000000000 ]
    mass: 79.904000
    reduced_to: 57
  - symbol: Br # 60
    coordinates: [  0.500000000000000,  0.500000000000000,  0.250000000000000 ]
    mass: 79.904000
    reduced_to: 57
  - symbol: Br # 61
    coordinates: [  0.000000000000000,  0.000000000000000,  0.750000000000000 ]
    mass: 79.904000
    reduced_to: 57
  - symbol: Br # 62
    coordinates: [  0.500000000000000,  0.000000000000000,  0.750000000000000 ]
    mass: 79.904000
    reduced_to: 57
  - symbol: Br # 63
    coordinates: [  0.000000000000000,  0.500000000000000,  0.750000000000000 ]
    mass: 79.904000
    reduced_to: 57
  - symbol: Br # 64
    coordinates: [  0.500000000000000,  0.500000000000000,  0.750000000000000 ]
    mass: 79.904000
    reduced_to: 57

displacements:
- atom:    1
  displacement:
    [   0.0100000000000000,  0.0000000000000000,  0.0000000000000000 ]
- atom:   33
  displacement:
    [   0.0100000000000000,  0.0000000000000000,  0.0000000000000000 ]
